 Entering Gaussian System, Link 0=g16
 Initial command:
 /root/g16/l1.exe "/root/g16/scratch/gau_root_16304/Gau-16311.inp" -scrdir="/root/g16/scratch/gau_root_16304/"
 Entering Link 1 = /root/g16/l1.exe PID=     16313.
  
 Copyright (c) 1988,1990,1992,1993,1995,1998,2003,2009,2016,
            Gaussian, Inc.  All Rights Reserved.
  
 This is part of the Gaussian(R) 16 program.  It is based on
 the Gaussian(R) 09 system (copyright 2009, Gaussian, Inc.),
 the Gaussian(R) 03 system (copyright 2003, Gaussian, Inc.),
 the Gaussian(R) 98 system (copyright 1998, Gaussian, Inc.),
 the Gaussian(R) 94 system (copyright 1995, Gaussian, Inc.),
 the Gaussian 92(TM) system (copyright 1992, Gaussian, Inc.),
 the Gaussian 90(TM) system (copyright 1990, Gaussian, Inc.),
 the Gaussian 88(TM) system (copyright 1988, Gaussian, Inc.),
 the Gaussian 86(TM) system (copyright 1986, Carnegie Mellon
 University), and the Gaussian 82(TM) system (copyright 1983,
 Carnegie Mellon University). Gaussian is a federally registered
 trademark of Gaussian, Inc.
  
 This software contains proprietary and confidential information,
 including trade secrets, belonging to Gaussian, Inc.
  
 This software is provided under written license and may be
 used, copied, transmitted, or stored only in accord with that
 written license.
  
 The following legend is applicable only to US Government
 contracts under FAR:
  
                    RESTRICTED RIGHTS LEGEND
  
 Use, reproduction and disclosure by the US Government is
 subject to restrictions as set forth in subparagraphs (a)
 and (c) of the Commercial Computer Software - Restricted
 Rights clause in FAR 52.227-19.
  
 Gaussian, Inc.
 340 Quinnipiac St., Bldg. 40, Wallingford CT 06492
  
  
 ---------------------------------------------------------------
 Warning -- This program may not be used in any manner that
 competes with the business of Gaussian, Inc. or will provide
 assistance to any competitor of Gaussian, Inc.  The licensee
 of this program is prohibited from giving any competitor of
 Gaussian, Inc. access to this program.  By using this program,
 the user acknowledges that Gaussian, Inc. is engaged in the
 business of creating and licensing software in the field of
 computational chemistry and represents and warrants to the
 licensee that it is not a competitor of Gaussian, Inc. and that
 it will not use this program in any manner prohibited above.
 ---------------------------------------------------------------
  

 Cite this work as:
 Gaussian 16, Revision A.03,
 M. J. Frisch, G. W. Trucks, H. B. Schlegel, G. E. Scuseria, 
 M. A. Robb, J. R. Cheeseman, G. Scalmani, V. Barone, 
 G. A. Petersson, H. Nakatsuji, X. Li, M. Caricato, A. V. Marenich, 
 J. Bloino, B. G. Janesko, R. Gomperts, B. Mennucci, H. P. Hratchian, 
 J. V. Ortiz, A. F. Izmaylov, J. L. Sonnenberg, D. Williams-Young, 
 F. Ding, F. Lipparini, F. Egidi, J. Goings, B. Peng, A. Petrone, 
 T. Henderson, D. Ranasinghe, V. G. Zakrzewski, J. Gao, N. Rega, 
 G. Zheng, W. Liang, M. Hada, M. Ehara, K. Toyota, R. Fukuda, 
 J. Hasegawa, M. Ishida, T. Nakajima, Y. Honda, O. Kitao, H. Nakai, 
 T. Vreven, K. Throssell, J. A. Montgomery, Jr., J. E. Peralta, 
 F. Ogliaro, M. J. Bearpark, J. J. Heyd, E. N. Brothers, K. N. Kudin, 
 V. N. Staroverov, T. A. Keith, R. Kobayashi, J. Normand, 
 K. Raghavachari, A. P. Rendell, J. C. Burant, S. S. Iyengar, 
 J. Tomasi, M. Cossi, J. M. Millam, M. Klene, C. Adamo, R. Cammi, 
 J. W. Ochterski, R. L. Martin, K. Morokuma, O. Farkas, 
 J. B. Foresman, and D. J. Fox, Gaussian, Inc., Wallingford CT, 2016.
 
 ******************************************
 Gaussian 16:  ES64L-G16RevA.03 25-Dec-2016
                27-Jan-2026 
 ******************************************
 %chk=reactant_complex.chk
 %mem=32GB
 %nprocshared=16
 Will use up to   16 processors via shared memory.
 ----------------------------------------------------------------------
 #p B3LYP/def2SVP em=GD3BJ SCRF=(PCM,Solvent=Acetone) Opt=CalcFC Freq P
 op=NBO
 ----------------------------------------------------------------------
 1/10=4,18=20,19=15,26=3,38=1/1,3;
 2/9=110,12=2,17=6,18=5,40=1/2;
 3/5=43,7=101,11=2,25=1,30=1,70=2201,71=2,72=19,74=-5,124=41,140=1/1,2,3;
 4//1;
 5/5=2,38=5,53=19/2;
 8/6=4,10=90,11=11/1;
 11/6=1,8=1,9=11,15=111,16=1/1,2,10;
 10/6=1,13=1/2;
 6/7=2,8=2,9=2,10=2,28=1,40=1/1,7;
 7/10=1,18=20,25=1/1,2,3,16;
 1/10=4,18=20,19=15,26=3/3(2);
 2/9=110/2;
 99//99;
 2/9=110/2;
 3/5=43,7=101,11=2,25=1,30=1,70=2205,71=1,72=19,74=-5,124=41/1,2,3;
 4/5=5,16=3,69=1/1;
 5/5=2,38=5,53=19/2;
 7//1,2,3,16;
 1/18=20,19=15,26=3/3(-5);
 2/9=110/2;
 6/7=2,8=2,9=2,10=2,19=2,28=1,40=1/1,7;
 99/9=1/99;
 Leave Link    1 at Tue Jan 27 17:50:56 2026, MaxMem=  4294967296 cpu:               0.3 elap:               0.0
 (Enter /root/g16/l101.exe)
 ----------------
 reactant_complex
 ----------------
 Symbolic Z-matrix:
 Charge =  0 Multiplicity = 1
 O                     2.80437  -0.77184  -1.5694 
 C                     2.01339  -0.73942  -0.61955 
 C                     0.71146  -1.37195  -0.6076 
 C                    -0.12689  -1.29797   0.47841 
 C                    -1.50141  -1.90258   0.46994 
 C                    -2.46788  -1.09629  -0.40916 
 C                    -2.50249   0.385    -0.0164 
 C                    -1.32719   1.13234  -0.62009 
 O                    -1.06503   1.05069  -1.80286 
 C                    -0.53364   1.96689   0.30793 
 C                     0.64965   2.45832  -0.04633 
 C                     2.30548  -0.05978   0.61636 
 O                     1.50261  -0.04236   1.6435 
 C                     0.32277  -0.60991   1.60865 
 H                     0.41447  -1.90341  -1.4994 
 H                    -1.44761  -2.92121   0.08298 
 H                    -1.88663  -1.9409    1.48997 
 H                    -3.46446  -1.5286   -0.31412 
 H                    -2.16428  -1.16363  -1.45528 
 H                    -2.5296    0.498     1.0667 
 H                    -3.40502   0.8373   -0.43549 
 H                    -0.95162   2.14855   1.2875 
 H                     1.04741   2.25862  -1.02896 
 H                     1.24852   3.06032   0.61563 
 H                     3.24489   0.45167   0.76941 
 H                    -0.2353   -0.51829   2.52688 
 
 ITRead=  0  0  0  0  0  0  0  0  0  0  0  0  0  0  0  0  0  0  0  0
 ITRead=  0  0  0  0  0  0
 MicOpt= -1 -1 -1 -1 -1 -1 -1 -1 -1 -1 -1 -1 -1 -1 -1 -1 -1 -1 -1 -1
 MicOpt= -1 -1 -1 -1 -1 -1
 NAtoms=     26 NQM=       26 NQMF=       0 NMMI=      0 NMMIF=      0
                NMic=       0 NMicF=      0.
                    Isotopes and Nuclear Properties:
 (Nuclear quadrupole moments (NQMom) in fm**2, nuclear magnetic moments (NMagM)
  in nuclear magnetons)

  Atom         1           2           3           4           5           6           7           8           9          10
 IAtWgt=          16          12          12          12          12          12          12          12          16          12
 AtmWgt=  15.9949146  12.0000000  12.0000000  12.0000000  12.0000000  12.0000000  12.0000000  12.0000000  15.9949146  12.0000000
 NucSpn=           0           0           0           0           0           0           0           0           0           0
 AtZEff=  -0.0000000  -0.0000000  -0.0000000  -0.0000000  -0.0000000  -0.0000000  -0.0000000  -0.0000000  -0.0000000  -0.0000000
 NQMom=    0.0000000   0.0000000   0.0000000   0.0000000   0.0000000   0.0000000   0.0000000   0.0000000   0.0000000   0.0000000
 NMagM=    0.0000000   0.0000000   0.0000000   0.0000000   0.0000000   0.0000000   0.0000000   0.0000000   0.0000000   0.0000000
 AtZNuc=   8.0000000   6.0000000   6.0000000   6.0000000   6.0000000   6.0000000   6.0000000   6.0000000   8.0000000   6.0000000

  Atom        11          12          13          14          15          16          17          18          19          20
 IAtWgt=          12          12          16          12           1           1           1           1           1           1
 AtmWgt=  12.0000000  12.0000000  15.9949146  12.0000000   1.0078250   1.0078250   1.0078250   1.0078250   1.0078250   1.0078250
 NucSpn=           0           0           0           0           1           1           1           1           1           1
 AtZEff=  -0.0000000  -0.0000000  -0.0000000  -0.0000000  -0.0000000  -0.0000000  -0.0000000  -0.0000000  -0.0000000  -0.0000000
 NQMom=    0.0000000   0.0000000   0.0000000   0.0000000   0.0000000   0.0000000   0.0000000   0.0000000   0.0000000   0.0000000
 NMagM=    0.0000000   0.0000000   0.0000000   0.0000000   2.7928460   2.7928460   2.7928460   2.7928460   2.7928460   2.7928460
 AtZNuc=   6.0000000   6.0000000   8.0000000   6.0000000   1.0000000   1.0000000   1.0000000   1.0000000   1.0000000   1.0000000

  Atom        21          22          23          24          25          26
 IAtWgt=           1           1           1           1           1           1
 AtmWgt=   1.0078250   1.0078250   1.0078250   1.0078250   1.0078250   1.0078250
 NucSpn=           1           1           1           1           1           1
 AtZEff=  -0.0000000  -0.0000000  -0.0000000  -0.0000000  -0.0000000  -0.0000000
 NQMom=    0.0000000   0.0000000   0.0000000   0.0000000   0.0000000   0.0000000
 NMagM=    2.7928460   2.7928460   2.7928460   2.7928460   2.7928460   2.7928460
 AtZNuc=   1.0000000   1.0000000   1.0000000   1.0000000   1.0000000   1.0000000
 Leave Link  101 at Tue Jan 27 17:50:56 2026, MaxMem=  4294967296 cpu:               6.2 elap:               0.4
 (Enter /root/g16/l103.exe)

 GradGradGradGradGradGradGradGradGradGradGradGradGradGradGradGradGradGrad
 Berny optimization.
 Initialization pass.
                           ----------------------------
                           !    Initial Parameters    !
                           ! (Angstroms and Degrees)  !
 --------------------------                            --------------------------
 ! Name  Definition              Value          Derivative Info.                !
 --------------------------------------------------------------------------------
 ! R1    R(1,2)                  1.2365         calculate D2E/DX2 analytically  !
 ! R2    R(2,3)                  1.4475         calculate D2E/DX2 analytically  !
 ! R3    R(2,12)                 1.4404         calculate D2E/DX2 analytically  !
 ! R4    R(3,4)                  1.3739         calculate D2E/DX2 analytically  !
 ! R5    R(3,15)                 1.0798         calculate D2E/DX2 analytically  !
 ! R6    R(4,5)                  1.5016         calculate D2E/DX2 analytically  !
 ! R7    R(4,14)                 1.3975         calculate D2E/DX2 analytically  !
 ! R8    R(5,6)                  1.5352         calculate D2E/DX2 analytically  !
 ! R9    R(5,16)                 1.091          calculate D2E/DX2 analytically  !
 ! R10   R(5,17)                 1.091          calculate D2E/DX2 analytically  !
 ! R11   R(6,7)                  1.5329         calculate D2E/DX2 analytically  !
 ! R12   R(6,18)                 1.0905         calculate D2E/DX2 analytically  !
 ! R13   R(6,19)                 1.0914         calculate D2E/DX2 analytically  !
 ! R14   R(7,8)                  1.518          calculate D2E/DX2 analytically  !
 ! R15   R(7,20)                 1.0893         calculate D2E/DX2 analytically  !
 ! R16   R(7,21)                 1.0931         calculate D2E/DX2 analytically  !
 ! R17   R(8,9)                  1.2142         calculate D2E/DX2 analytically  !
 ! R18   R(8,10)                 1.479          calculate D2E/DX2 analytically  !
 ! R19   R(10,11)                1.3294         calculate D2E/DX2 analytically  !
 ! R20   R(10,22)                1.0804         calculate D2E/DX2 analytically  !
 ! R21   R(11,23)                1.0787         calculate D2E/DX2 analytically  !
 ! R22   R(11,24)                1.0767         calculate D2E/DX2 analytically  !
 ! R23   R(12,13)                1.3038         calculate D2E/DX2 analytically  !
 ! R24   R(12,25)                1.0805         calculate D2E/DX2 analytically  !
 ! R25   R(13,14)                1.3097         calculate D2E/DX2 analytically  !
 ! R26   R(14,26)                1.0784         calculate D2E/DX2 analytically  !
 ! A1    A(1,2,3)              124.7674         calculate D2E/DX2 analytically  !
 ! A2    A(1,2,12)             122.8053         calculate D2E/DX2 analytically  !
 ! A3    A(3,2,12)             112.4263         calculate D2E/DX2 analytically  !
 ! A4    A(2,3,4)              122.1282         calculate D2E/DX2 analytically  !
 ! A5    A(2,3,15)             117.1061         calculate D2E/DX2 analytically  !
 ! A6    A(4,3,15)             120.7629         calculate D2E/DX2 analytically  !
 ! A7    A(3,4,5)              122.1671         calculate D2E/DX2 analytically  !
 ! A8    A(3,4,14)             117.9979         calculate D2E/DX2 analytically  !
 ! A9    A(5,4,14)             119.8222         calculate D2E/DX2 analytically  !
 ! A10   A(4,5,6)              111.5922         calculate D2E/DX2 analytically  !
 ! A11   A(4,5,16)             109.4382         calculate D2E/DX2 analytically  !
 ! A12   A(4,5,17)             109.3938         calculate D2E/DX2 analytically  !
 ! A13   A(6,5,16)             108.5607         calculate D2E/DX2 analytically  !
 ! A14   A(6,5,17)             109.3614         calculate D2E/DX2 analytically  !
 ! A15   A(16,5,17)            108.435          calculate D2E/DX2 analytically  !
 ! A16   A(5,6,7)              112.0252         calculate D2E/DX2 analytically  !
 ! A17   A(5,6,18)             108.4945         calculate D2E/DX2 analytically  !
 ! A18   A(5,6,19)             109.9588         calculate D2E/DX2 analytically  !
 ! A19   A(7,6,18)             109.8854         calculate D2E/DX2 analytically  !
 ! A20   A(7,6,19)             108.1506         calculate D2E/DX2 analytically  !
 ! A21   A(18,6,19)            108.2587         calculate D2E/DX2 analytically  !
 ! A22   A(6,7,8)              110.8774         calculate D2E/DX2 analytically  !
 ! A23   A(6,7,20)             110.828          calculate D2E/DX2 analytically  !
 ! A24   A(6,7,21)             108.6794         calculate D2E/DX2 analytically  !
 ! A25   A(8,7,20)             111.3233         calculate D2E/DX2 analytically  !
 ! A26   A(8,7,21)             106.445          calculate D2E/DX2 analytically  !
 ! A27   A(20,7,21)            108.5271         calculate D2E/DX2 analytically  !
 ! A28   A(7,8,9)              121.4299         calculate D2E/DX2 analytically  !
 ! A29   A(7,8,10)             116.3389         calculate D2E/DX2 analytically  !
 ! A30   A(9,8,10)             122.2295         calculate D2E/DX2 analytically  !
 ! A31   A(8,10,11)            121.2637         calculate D2E/DX2 analytically  !
 ! A32   A(8,10,22)            117.1428         calculate D2E/DX2 analytically  !
 ! A33   A(11,10,22)           121.5894         calculate D2E/DX2 analytically  !
 ! A34   A(10,11,23)           120.1675         calculate D2E/DX2 analytically  !
 ! A35   A(10,11,24)           122.5448         calculate D2E/DX2 analytically  !
 ! A36   A(23,11,24)           117.2877         calculate D2E/DX2 analytically  !
 ! A37   A(2,12,13)            123.8755         calculate D2E/DX2 analytically  !
 ! A38   A(2,12,25)            121.4119         calculate D2E/DX2 analytically  !
 ! A39   A(13,12,25)           114.6751         calculate D2E/DX2 analytically  !
 ! A40   A(12,13,14)           121.8693         calculate D2E/DX2 analytically  !
 ! A41   A(4,14,13)            121.6491         calculate D2E/DX2 analytically  !
 ! A42   A(4,14,26)            124.3286         calculate D2E/DX2 analytically  !
 ! A43   A(13,14,26)           113.9984         calculate D2E/DX2 analytically  !
 ! D1    D(1,2,3,4)           -179.812          calculate D2E/DX2 analytically  !
 ! D2    D(1,2,3,15)            -0.4125         calculate D2E/DX2 analytically  !
 ! D3    D(12,2,3,4)             0.5415         calculate D2E/DX2 analytically  !
 ! D4    D(12,2,3,15)          179.941          calculate D2E/DX2 analytically  !
 ! D5    D(1,2,12,13)         -178.0936         calculate D2E/DX2 analytically  !
 ! D6    D(1,2,12,25)           -0.4414         calculate D2E/DX2 analytically  !
 ! D7    D(3,2,12,13)            1.5609         calculate D2E/DX2 analytically  !
 ! D8    D(3,2,12,25)          179.2131         calculate D2E/DX2 analytically  !
 ! D9    D(2,3,4,5)            177.2712         calculate D2E/DX2 analytically  !
 ! D10   D(2,3,4,14)            -1.4211         calculate D2E/DX2 analytically  !
 ! D11   D(15,3,4,5)            -2.1067         calculate D2E/DX2 analytically  !
 ! D12   D(15,3,4,14)          179.201          calculate D2E/DX2 analytically  !
 ! D13   D(3,4,5,6)            -72.5426         calculate D2E/DX2 analytically  !
 ! D14   D(3,4,5,16)            47.6358         calculate D2E/DX2 analytically  !
 ! D15   D(3,4,5,17)           166.3049         calculate D2E/DX2 analytically  !
 ! D16   D(14,4,5,6)           106.1265         calculate D2E/DX2 analytically  !
 ! D17   D(14,4,5,16)         -133.6951         calculate D2E/DX2 analytically  !
 ! D18   D(14,4,5,17)          -15.026          calculate D2E/DX2 analytically  !
 ! D19   D(3,4,14,13)            0.3244         calculate D2E/DX2 analytically  !
 ! D20   D(3,4,14,26)         -177.7871         calculate D2E/DX2 analytically  !
 ! D21   D(5,4,14,13)         -178.3996         calculate D2E/DX2 analytically  !
 ! D22   D(5,4,14,26)            3.4888         calculate D2E/DX2 analytically  !
 ! D23   D(4,5,6,7)            -53.9002         calculate D2E/DX2 analytically  !
 ! D24   D(4,5,6,18)          -175.3809         calculate D2E/DX2 analytically  !
 ! D25   D(4,5,6,19)            66.3929         calculate D2E/DX2 analytically  !
 ! D26   D(16,5,6,7)          -174.5928         calculate D2E/DX2 analytically  !
 ! D27   D(16,5,6,18)           63.9264         calculate D2E/DX2 analytically  !
 ! D28   D(16,5,6,19)          -54.2997         calculate D2E/DX2 analytically  !
 ! D29   D(17,5,6,7)            67.2712         calculate D2E/DX2 analytically  !
 ! D30   D(17,5,6,18)          -54.2095         calculate D2E/DX2 analytically  !
 ! D31   D(17,5,6,19)         -172.4357         calculate D2E/DX2 analytically  !
 ! D32   D(5,6,7,8)             81.049          calculate D2E/DX2 analytically  !
 ! D33   D(5,6,7,20)           -43.1099         calculate D2E/DX2 analytically  !
 ! D34   D(5,6,7,21)          -162.2855         calculate D2E/DX2 analytically  !
 ! D35   D(18,6,7,8)          -158.2735         calculate D2E/DX2 analytically  !
 ! D36   D(18,6,7,20)           77.5677         calculate D2E/DX2 analytically  !
 ! D37   D(18,6,7,21)          -41.6079         calculate D2E/DX2 analytically  !
 ! D38   D(19,6,7,8)           -40.2912         calculate D2E/DX2 analytically  !
 ! D39   D(19,6,7,20)         -164.4501         calculate D2E/DX2 analytically  !
 ! D40   D(19,6,7,21)           76.3744         calculate D2E/DX2 analytically  !
 ! D41   D(6,7,8,9)             50.6715         calculate D2E/DX2 analytically  !
 ! D42   D(6,7,8,10)          -129.7854         calculate D2E/DX2 analytically  !
 ! D43   D(20,7,8,9)           174.5475         calculate D2E/DX2 analytically  !
 ! D44   D(20,7,8,10)           -5.9093         calculate D2E/DX2 analytically  !
 ! D45   D(21,7,8,9)           -67.3615         calculate D2E/DX2 analytically  !
 ! D46   D(21,7,8,10)          112.1816         calculate D2E/DX2 analytically  !
 ! D47   D(7,8,10,11)          167.1615         calculate D2E/DX2 analytically  !
 ! D48   D(7,8,10,22)          -12.1081         calculate D2E/DX2 analytically  !
 ! D49   D(9,8,10,11)          -13.2993         calculate D2E/DX2 analytically  !
 ! D50   D(9,8,10,22)          167.4311         calculate D2E/DX2 analytically  !
 ! D51   D(8,10,11,23)           0.4662         calculate D2E/DX2 analytically  !
 ! D52   D(8,10,11,24)        -179.4207         calculate D2E/DX2 analytically  !
 ! D53   D(22,10,11,23)        179.7032         calculate D2E/DX2 analytically  !
 ! D54   D(22,10,11,24)         -0.1838         calculate D2E/DX2 analytically  !
 ! D55   D(2,12,13,14)          -2.7755         calculate D2E/DX2 analytically  !
 ! D56   D(25,12,13,14)        179.4294         calculate D2E/DX2 analytically  !
 ! D57   D(12,13,14,4)           1.7597         calculate D2E/DX2 analytically  !
 ! D58   D(12,13,14,26)       -179.9473         calculate D2E/DX2 analytically  !
 --------------------------------------------------------------------------------
 Trust Radius=3.00D-01 FncErr=1.00D-07 GrdErr=1.00D-06 EigMax=2.50D+02 EigMin=1.00D-04
 Number of steps in this run=    137 maximum allowed number of steps=    156.
 GradGradGradGradGradGradGradGradGradGradGradGradGradGradGradGradGradGrad

 Leave Link  103 at Tue Jan 27 17:50:56 2026, MaxMem=  4294967296 cpu:               0.3 elap:               0.0
 (Enter /root/g16/l202.exe)
                          Input orientation:                          
 ---------------------------------------------------------------------
 Center     Atomic      Atomic             Coordinates (Angstroms)
 Number     Number       Type             X           Y           Z
 ---------------------------------------------------------------------
      1          8           0        2.804371   -0.771839   -1.569401
      2          6           0        2.013394   -0.739417   -0.619548
      3          6           0        0.711464   -1.371949   -0.607596
      4          6           0       -0.126888   -1.297971    0.478405
      5          6           0       -1.501411   -1.902582    0.469937
      6          6           0       -2.467878   -1.096289   -0.409160
      7          6           0       -2.502492    0.385005   -0.016398
      8          6           0       -1.327190    1.132339   -0.620094
      9          8           0       -1.065030    1.050694   -1.802856
     10          6           0       -0.533643    1.966892    0.307927
     11          6           0        0.649652    2.458318   -0.046328
     12          6           0        2.305484   -0.059778    0.616364
     13          8           0        1.502607   -0.042364    1.643498
     14          6           0        0.322773   -0.609909    1.608654
     15          1           0        0.414471   -1.903413   -1.499400
     16          1           0       -1.447608   -2.921206    0.082984
     17          1           0       -1.886630   -1.940899    1.489970
     18          1           0       -3.464460   -1.528597   -0.314125
     19          1           0       -2.164281   -1.163632   -1.455282
     20          1           0       -2.529605    0.497996    1.066697
     21          1           0       -3.405021    0.837301   -0.435489
     22          1           0       -0.951624    2.148553    1.287500
     23          1           0        1.047412    2.258622   -1.028963
     24          1           0        1.248524    3.060321    0.615635
     25          1           0        3.244887    0.451675    0.769408
     26          1           0       -0.235303   -0.518286    2.526879
 ---------------------------------------------------------------------
                    Distance matrix (angstroms):
                    1          2          3          4          5
     1  O    0.000000
     2  C    1.236494   0.000000
     3  C    2.380223   1.447502   0.000000
     4  C    3.614223   2.469472   1.373938   0.000000
     5  C    4.896656   3.859246   2.517829   1.501645   0.000000
     6  C    5.408145   4.500380   3.197433   2.511708   1.535245
     7  C    5.649151   4.692690   3.710245   2.953089   2.543961
     8  C    4.647243   3.829226   3.229198   2.924693   3.229437
     9  O    4.283502   3.752520   3.233230   3.405949   3.752046
    10  C    4.708221   3.830368   3.679175   3.294517   3.991948
    11  C    4.170908   3.523334   3.871664   3.871442   4.889892
    12  C    2.352337   1.440383   2.400160   2.732871   4.231999
    13  O    3.542520   2.422429   2.731506   2.364158   3.723141
    14  C    4.035417   2.799975   2.375616   1.397529   2.509049
    15  H    2.645180   2.164620   1.079802   2.138070   2.747525
    16  H    5.042765   4.151179   2.745667   2.129683   1.090973
    17  H    5.721184   4.593889   3.387267   2.129158   1.091022
    18  H    6.437907   5.542831   4.189153   3.438121   2.146667
    19  H    4.985381   4.281515   3.005307   2.812145   2.166082
    20  H    6.083814   5.001345   4.099326   3.056899   2.678820
    21  H    6.513957   5.646161   4.675024   4.017554   3.456947
    22  H    5.549601   4.557251   4.330263   3.635017   4.169216
    23  H    3.544386   3.176316   3.670348   4.037387   5.104783
    24  H    4.677659   4.068011   4.629227   4.572232   5.675718
    25  H    2.676017   2.205555   3.411741   3.809831   5.306558
    26  H    5.107193   3.873698   3.383791   2.194518   2.783939
                    6          7          8          9         10
     6  C    0.000000
     7  C    1.532870   0.000000
     8  C    2.512458   1.517990   0.000000
     9  O    2.918888   2.387650   1.214215   0.000000
    10  C    3.693042   2.546354   1.478993   2.361609   0.000000
    11  C    4.741927   3.773001   2.448537   2.829652   1.329355
    12  C    4.991095   4.869790   4.018244   4.294896   3.501880
    13  O    4.592266   4.356457   3.809399   4.434511   3.157083
    14  C    3.477912   3.407751   3.274923   4.040050   3.010854
    15  H    3.185594   3.993098   3.608650   3.317794   4.375456
    16  H    2.147901   3.471842   4.115828   4.413473   4.977895
    17  H    2.158219   2.838707   3.769633   4.524086   4.301004
    18  H    1.090457   2.162382   3.426678   3.824438   4.603812
    19  H    1.091365   2.140806   2.582584   2.496477   3.945639
    20  H    2.173409   1.089309   2.166439   3.268759   2.591766
    21  H    2.148884   1.093054   2.106776   2.718599   3.173870
    22  H    3.963165   2.686157   2.193776   3.281532   1.080403
    23  H    4.898657   4.139752   2.659778   2.553510   2.090960
    24  H    5.669149   4.650473   3.446512   3.903874   2.113383
    25  H    6.034973   5.801233   4.826791   5.054775   4.097089
    26  H    3.733470   3.524817   3.717555   4.679396   3.344976
                   11         12         13         14         15
    11  C    0.000000
    12  C    3.085732   0.000000
    13  O    3.136312   1.303809   0.000000
    14  C    3.501404   2.284388   1.309706   0.000000
    15  H    4.603414   3.383987   3.811213   3.367723   0.000000
    16  H    5.775335   4.749522   4.407573   3.286946   2.647108
    17  H    5.305285   4.677138   3.887793   2.582069   3.772639
    18  H    5.735253   6.026233   5.541924   4.345595   4.073263
    19  H    4.798113   5.048663   4.930085   3.984940   2.683130
    20  H    3.897353   4.887944   4.108944   3.107608   4.584670
    21  H    4.384006   5.875458   5.401926   4.491034   4.819952
    22  H    2.106926   3.991980   3.309094   3.055542   5.104062
    23  H    1.078731   3.108830   3.555810   3.963659   4.236090
    24  H    1.076685   3.294266   3.278371   3.913272   5.459640
    25  H    3.380427   1.080503   2.010883   3.220256   4.324949
    26  H    4.032952   3.211836   2.006787   1.078415   4.307169
                   16         17         18         19         20
    16  H    0.000000
    17  H    1.770128   0.000000
    18  H    2.482891   2.431933   0.000000
    19  H    2.443143   3.058715   1.768023   0.000000
    20  H    3.718783   2.557496   2.624442   3.042177   0.000000
    21  H    4.269269   3.705577   2.369754   2.565764   1.771452
    22  H    5.234435   4.199863   4.732967   4.468104   2.294148
    23  H    5.855951   5.708730   5.933886   4.712593   4.504069
    24  H    6.582668   5.967065   6.643406   5.811859   4.587290
    25  H    5.819538   5.707547   7.078903   6.067747   5.782325
    26  H    3.635428   2.413689   4.418086   4.471580   2.903236
                   21         22         23         24         25
    21  H    0.000000
    22  H    3.272190   0.000000
    23  H    4.711318   3.061741   0.000000
    24  H    5.263284   2.474546   1.840616   0.000000
    25  H    6.769177   4.556152   3.365723   3.288487   0.000000
    26  H    4.545366   3.026748   4.690478   4.319841   4.017618
                   26
    26  H    0.000000
 Stoichiometry    C11H12O3
 Framework group  C1[X(C11H12O3)]
 Deg. of freedom    72
 Full point group                 C1      NOp   1
 Largest Abelian subgroup         C1      NOp   1
 Largest concise Abelian subgroup C1      NOp   1
                         Standard orientation:                         
 ---------------------------------------------------------------------
 Center     Atomic      Atomic             Coordinates (Angstroms)
 Number     Number       Type             X           Y           Z
 ---------------------------------------------------------------------
      1          8           0        2.758457   -0.397928   -1.703206
      2          6           0        2.002357   -0.522491   -0.732786
      3          6           0        0.724161   -1.201091   -0.764042
      4          6           0       -0.075662   -1.304392    0.348305
      5          6           0       -1.428067   -1.955450    0.302879
      6          6           0       -2.453285   -1.077838   -0.429038
      7          6           0       -2.524082    0.335817    0.159400
      8          6           0       -1.398078    1.201674   -0.376043
      9          8           0       -1.177021    1.287840   -1.566853
     10          6           0       -0.599913    1.935966    0.629525
     11          6           0        0.552019    2.515601    0.306635
     12          6           0        2.316341   -0.001928    0.573020
     13          8           0        1.551716   -0.152066    1.618356
     14          6           0        0.391513   -0.755356    1.545550
     15          1           0        0.412884   -1.620725   -1.709023
     16          1           0       -1.353725   -2.910898   -0.218478
     17          1           0       -1.773917   -2.143626    1.320380
     18          1           0       -3.430311   -1.557297   -0.360951
     19          1           0       -2.186299   -0.994018   -1.483918
     20          1           0       -2.515134    0.303039    1.248179
     21          1           0       -3.456384    0.804308   -0.166324
     22          1           0       -0.987502    1.969751    1.637446
     23          1           0        0.919916    2.463575   -0.706088
     24          1           0        1.153913    3.047298    1.023762
     25          1           0        3.242690    0.520798    0.763073
     26          1           0       -0.135171   -0.808048    2.485128
 ---------------------------------------------------------------------
 Rotational constants (GHZ):           0.9684244           0.6580555           0.5752541
 Leave Link  202 at Tue Jan 27 17:50:56 2026, MaxMem=  4294967296 cpu:               0.2 elap:               0.0
 (Enter /root/g16/l301.exe)
 Standard basis: def2SVP (5D, 7F)
 Ernie: Thresh=  0.10000D-02 Tol=  0.10000D-05 Strict=F.
 There are   270 symmetry adapted cartesian basis functions of A   symmetry.
 There are   256 symmetry adapted basis functions of A   symmetry.
   256 basis functions,   434 primitive gaussians,   270 cartesian basis functions
    51 alpha electrons       51 beta electrons
       nuclear repulsion energy       916.1037389158 Hartrees.
 IExCor=  402 DFT=T Ex+Corr=B3LYP ExCW=0 ScaHFX=  0.200000
 ScaDFX=  0.800000  0.720000  1.000000  0.810000 ScalE2=  1.000000  1.000000
 IRadAn=      5 IRanWt=     -1 IRanGd=            0 ICorTp=0 IEmpDi=141
 NAtoms=   26 NActive=   26 NUniq=   26 SFac= 1.00D+00 NAtFMM=   60 NAOKFM=F Big=F
 Integral buffers will be    131072 words long.
 Raffenetti 2 integral format.
 Two-electron integral symmetry is turned on.
 R6Disp:  Grimme-D3(BJ) Dispersion energy=       -0.0566384923 Hartrees.
 Nuclear repulsion after empirical dispersion term =      916.0471004234 Hartrees.
 Force inversion solution in PCM.
 ------------------------------------------------------------------------------
 Polarizable Continuum Model (PCM)
 =================================
 Model                : PCM.
 Atomic radii         : UFF (Universal Force Field).
 Polarization charges : Total charges.
 Charge compensation  : None.
 Solution method      : Matrix inversion.
 Cavity type          : Scaled VdW (van der Waals Surface) (Alpha=1.100).
 Cavity algorithm     : GePol (No added spheres)
                        Default sphere list used, NSphG=   26.
                        Lebedev-Laikov grids with approx.  5.0 points / Ang**2.
                        Smoothing algorithm: York/Karplus (Gamma=1.0000).
                        Polarization charges: spherical gaussians, with
                                              point-specific exponents (IZeta= 3).
                        Self-potential: point-specific (ISelfS= 7).
                        Self-field    : sphere-specific E.n sum rule (ISelfD= 2).
 1st derivatives      : Analytical E(r).r(x)/FMM algorithm (CHGder, D1EAlg=3).
                        Cavity 1st derivative terms included.
 2nd derivatives      : Analytical E(r).r(xy)/FMM algorithm (CHGder, D2EAlg=3).
                        Cavity 2nd derivative terms included.
 Solvent              : Acetone, Eps=  20.493000 Eps(inf)=   1.846337
 ------------------------------------------------------------------------------
 GePol: Number of generator spheres                  =      26
 GePol: Total number of spheres                      =      26
 GePol: Number of exposed spheres                    =      26 (100.00%)
 GePol: Number of points                             =    1868
 GePol: Average weight of points                     =       0.13
 GePol: Minimum weight of points                     =   0.24D-11
 GePol: Maximum weight of points                     =    0.20577
 GePol: Number of points with low weight             =     124
 GePol: Fraction of low-weight points (<1% of avg)   =       6.64%
 GePol: Cavity surface area                          =    246.359 Ang**2
 GePol: Cavity volume                                =    271.755 Ang**3
 Leave Link  301 at Tue Jan 27 17:50:56 2026, MaxMem=  4294967296 cpu:               0.8 elap:               0.1
 (Enter /root/g16/l302.exe)
 NPDir=0 NMtPBC=     1 NCelOv=     1 NCel=       1 NClECP=     1 NCelD=      1
         NCelK=      1 NCelE2=     1 NClLst=     1 CellRange=     0.0.
 One-electron integrals computed using PRISM.
 One-electron integral symmetry used in STVInt
   1 Symmetry operations used in ECPInt.
 ECPInt:  NShTT=    7260 NPrTT=   26324 LenC2=    7132 LenP2D=   19666.
 LDataN:  DoStor=T MaxTD1= 4 Len=   56
 NBasis=   256 RedAO= T EigKep=  6.00D-04  NBF=   256
 NBsUse=   256 1.00D-06 EigRej= -1.00D+00 NBFU=   256
 Precomputing XC quadrature grid using
 IXCGrd= 4 IRadAn=           5 IRanWt=          -1 IRanGd=           0 AccXCQ= 0.00D+00.
 Generated NRdTot=       0 NPtTot=           0 NUsed=           0 NTot=          32
 NSgBfM=   270   270   270   270   270 MxSgAt=    26 MxSgA2=    26.
 Leave Link  302 at Tue Jan 27 17:50:56 2026, MaxMem=  4294967296 cpu:               2.3 elap:               0.1
 (Enter /root/g16/l303.exe)
 DipDrv:  MaxL=1.
 Leave Link  303 at Tue Jan 27 17:50:56 2026, MaxMem=  4294967296 cpu:               0.4 elap:               0.0
 (Enter /root/g16/l401.exe)
 ExpMin= 1.22D-01 ExpMax= 2.27D+03 ExpMxC= 3.41D+02 IAcc=3 IRadAn=         5 AccDes= 0.00D+00
 Harris functional with IExCor=  402 and IRadAn=       5 diagonalized for initial guess.
 HarFok:  IExCor=  402 AccDes= 0.00D+00 IRadAn=         5 IDoV= 1 UseB2=F ITyADJ=14
 ICtDFT=  3500011 ScaDFX=  1.000000  1.000000  1.000000  1.000000
 FoFCou: FMM=F IPFlag=           0 FMFlag=      100000 FMFlg1=           0
         NFxFlg=           0 DoJE=T BraDBF=F KetDBF=T FulRan=T
         wScrn=  0.000000 ICntrl=       500 IOpCl=  0 I1Cent=   200000004 NGrid=           0
         NMat0=    1 NMatS0=      1 NMatT0=    0 NMatD0=    1 NMtDS0=    0 NMtDT0=    0
 Petite list used in FoFCou.
 Harris En= -651.590914556844    
 JPrj=0 DoOrth=F DoCkMO=F.
 Leave Link  401 at Tue Jan 27 17:50:57 2026, MaxMem=  4294967296 cpu:               7.1 elap:               0.5
 (Enter /root/g16/l502.exe)
 Integral symmetry usage will be decided dynamically.
 Closed shell SCF:
 Using DIIS extrapolation, IDIIS=  1040.
 NGot=  4294967296 LenX=  4294814202 LenY=  4294740861
 Requested convergence on RMS density matrix=1.00D-08 within 128 cycles.
 Requested convergence on MAX density matrix=1.00D-06.
 Requested convergence on             energy=1.00D-06.
 No special actions if energy rises.
 Fock matrices will be formed incrementally for  20 cycles.

 Cycle   1  Pass 1  IDiag  1:
 FoFJK:  IHMeth= 1 ICntrl=       0 DoSepK=F KAlg= 0 I1Cent=           0 FoldK=F
 IRaf= 950000000 NMat=       1 IRICut=       1 DoRegI=T DoRafI=F ISym2E= 0 IDoP0=0 IntGTp=1.
 FoFCou: FMM=F IPFlag=           0 FMFlag=      100000 FMFlg1=           0
         NFxFlg=           0 DoJE=F BraDBF=F KetDBF=F FulRan=T
         wScrn=  0.000000 ICntrl=         0 IOpCl=  0 I1Cent=           0 NGrid=           0
         NMat0=    1 NMatS0=      1 NMatT0=    0 NMatD0=    1 NMtDS0=    0 NMtDT0=    0
 Symmetry not used in FoFCou.
 Inv3:  Mode=1 IEnd=    10468272.
 Iteration    1 A*A^-1 deviation from unit magnitude is 3.22D-15 for    362.
 Iteration    1 A*A^-1 deviation from orthogonality  is 2.44D-15 for   1733    149.
 Iteration    1 A^-1*A deviation from unit magnitude is 2.89D-15 for   1360.
 Iteration    1 A^-1*A deviation from orthogonality  is 1.69D-15 for    850    560.
 E= -651.224485969368    
 DIIS: error= 3.46D-02 at cycle   1 NSaved=   1.
 NSaved= 1 IEnMin= 1 EnMin= -651.224485969368     IErMin= 1 ErrMin= 3.46D-02
 ErrMax= 3.46D-02  0.00D+00 EMaxC= 1.00D-01 BMatC= 3.48D-01 BMatP= 3.48D-01
 IDIUse=3 WtCom= 6.54D-01 WtEn= 3.46D-01
 Coeff-Com:  0.100D+01
 Coeff-En:   0.100D+01
 Coeff:      0.100D+01
 Gap=     0.165 Goal=   None    Shift=    0.000
 GapD=    0.165 DampG=1.000 DampE=0.500 DampFc=0.5000 IDamp=-1.
 Damping current iteration by 5.00D-01
 RMSDP=8.18D-03 MaxDP=2.91D-01              OVMax= 9.57D-01

 Cycle   2  Pass 1  IDiag  1:
 RMSU=  4.03D-03    CP:  9.69D-01
 E= -650.950930822287     Delta-E=        0.273555147082 Rises=F Damp=T
 DIIS: error= 5.90D-02 at cycle   2 NSaved=   2.
 NSaved= 2 IEnMin= 1 EnMin= -651.224485969368     IErMin= 1 ErrMin= 3.46D-02
 ErrMax= 5.90D-02  0.00D+00 EMaxC= 1.00D-01 BMatC= 2.18D-01 BMatP= 3.48D-01
 IDIUse=3 WtCom= 4.10D-01 WtEn= 5.90D-01
 Coeff-Com:  0.419D+00 0.581D+00
 Coeff-En:   0.705D+00 0.295D+00
 Coeff:      0.588D+00 0.412D+00
 Gap=    -0.198 Goal=   None    Shift=    0.000
 RMSDP=3.60D-03 MaxDP=1.07D-01 DE= 2.74D-01 OVMax= 8.62D-01

 Cycle   3  Pass 1  IDiag  1:
 RMSU=  3.21D-03    CP:  9.64D-01  5.97D-01
 E= -651.417063490424     Delta-E=       -0.466132668137 Rises=F Damp=F
 DIIS: error= 2.95D-02 at cycle   3 NSaved=   3.
 NSaved= 3 IEnMin= 3 EnMin= -651.417063490424     IErMin= 3 ErrMin= 2.95D-02
 ErrMax= 2.95D-02  0.00D+00 EMaxC= 1.00D-01 BMatC= 1.46D-01 BMatP= 2.18D-01
 IDIUse=3 WtCom= 7.05D-01 WtEn= 2.95D-01
 EnCoef did     1 forward-backward iterations
 Coeff-Com:  0.255D+00 0.334D+00 0.411D+00
 Coeff-En:   0.225D+00 0.649D-02 0.769D+00
 Coeff:      0.246D+00 0.237D+00 0.516D+00
 Gap=     0.179 Goal=   None    Shift=    0.000
 RMSDP=2.62D-03 MaxDP=1.12D-01 DE=-4.66D-01 OVMax= 1.81D-01

 Cycle   4  Pass 1  IDiag  1:
 RMSU=  2.28D-03    CP:  9.77D-01  4.18D-01  6.80D-01
 E= -651.547805653766     Delta-E=       -0.130742163343 Rises=F Damp=F
 DIIS: error= 7.23D-03 at cycle   4 NSaved=   4.
 NSaved= 4 IEnMin= 4 EnMin= -651.547805653766     IErMin= 4 ErrMin= 7.23D-03
 ErrMax= 7.23D-03  0.00D+00 EMaxC= 1.00D-01 BMatC= 2.13D-02 BMatP= 1.46D-01
 IDIUse=3 WtCom= 9.28D-01 WtEn= 7.23D-02
 Coeff-Com:  0.889D-01 0.123D+00 0.277D+00 0.511D+00
 Coeff-En:   0.000D+00 0.000D+00 0.761D-01 0.924D+00
 Coeff:      0.825D-01 0.114D+00 0.263D+00 0.541D+00
 Gap=     0.138 Goal=   None    Shift=    0.000
 RMSDP=1.11D-03 MaxDP=6.05D-02 DE=-1.31D-01 OVMax= 1.23D-01

 Cycle   5  Pass 1  IDiag  1:
 RMSU=  5.57D-04    CP:  9.75D-01  4.54D-01  7.37D-01  5.92D-01
 E= -651.560268417747     Delta-E=       -0.012462763981 Rises=F Damp=F
 DIIS: error= 6.66D-03 at cycle   5 NSaved=   5.
 NSaved= 5 IEnMin= 5 EnMin= -651.560268417747     IErMin= 5 ErrMin= 6.66D-03
 ErrMax= 6.66D-03  0.00D+00 EMaxC= 1.00D-01 BMatC= 7.56D-03 BMatP= 2.13D-02
 IDIUse=3 WtCom= 9.33D-01 WtEn= 6.66D-02
 Coeff-Com:  0.304D-02 0.470D-01 0.857D-01 0.390D+00 0.474D+00
 Coeff-En:   0.000D+00 0.000D+00 0.000D+00 0.308D+00 0.692D+00
 Coeff:      0.283D-02 0.439D-01 0.799D-01 0.384D+00 0.489D+00
 Gap=     0.132 Goal=   None    Shift=    0.000
 RMSDP=4.65D-04 MaxDP=2.66D-02 DE=-1.25D-02 OVMax= 5.89D-02

 Cycle   6  Pass 1  IDiag  1:
 RMSU=  1.87D-04    CP:  9.76D-01  4.49D-01  7.35D-01  7.45D-01  5.62D-01
 E= -651.567445921855     Delta-E=       -0.007177504108 Rises=F Damp=F
 DIIS: error= 1.84D-03 at cycle   6 NSaved=   6.
 NSaved= 6 IEnMin= 6 EnMin= -651.567445921855     IErMin= 6 ErrMin= 1.84D-03
 ErrMax= 1.84D-03  0.00D+00 EMaxC= 1.00D-01 BMatC= 4.28D-04 BMatP= 7.56D-03
 IDIUse=3 WtCom= 9.82D-01 WtEn= 1.84D-02
 Coeff-Com: -0.144D-01 0.167D-01 0.935D-03 0.158D+00 0.272D+00 0.567D+00
 Coeff-En:   0.000D+00 0.000D+00 0.000D+00 0.000D+00 0.000D+00 0.100D+01
 Coeff:     -0.141D-01 0.164D-01 0.917D-03 0.155D+00 0.267D+00 0.575D+00
 Gap=     0.132 Goal=   None    Shift=    0.000
 RMSDP=1.09D-04 MaxDP=4.61D-03 DE=-7.18D-03 OVMax= 1.30D-02

 Cycle   7  Pass 1  IDiag  1:
 RMSU=  8.22D-05    CP:  9.76D-01  4.50D-01  7.39D-01  7.63D-01  6.40D-01
                    CP:  8.08D-01
 E= -651.567787692582     Delta-E=       -0.000341770728 Rises=F Damp=F
 DIIS: error= 5.78D-04 at cycle   7 NSaved=   7.
 NSaved= 7 IEnMin= 7 EnMin= -651.567787692582     IErMin= 7 ErrMin= 5.78D-04
 ErrMax= 5.78D-04  0.00D+00 EMaxC= 1.00D-01 BMatC= 8.91D-05 BMatP= 4.28D-04
 IDIUse=3 WtCom= 9.94D-01 WtEn= 5.78D-03
 Coeff-Com: -0.103D-01 0.784D-02-0.123D-01 0.452D-01 0.973D-01 0.361D+00
 Coeff-Com:  0.511D+00
 Coeff-En:   0.000D+00 0.000D+00 0.000D+00 0.000D+00 0.000D+00 0.652D-01
 Coeff-En:   0.935D+00
 Coeff:     -0.102D-01 0.779D-02-0.122D-01 0.449D-01 0.967D-01 0.360D+00
 Coeff:      0.513D+00
 Gap=     0.132 Goal=   None    Shift=    0.000
 RMSDP=4.84D-05 MaxDP=1.63D-03 DE=-3.42D-04 OVMax= 5.03D-03

 Cycle   8  Pass 1  IDiag  1:
 RMSU=  2.87D-05    CP:  9.76D-01  4.53D-01  7.38D-01  7.73D-01  6.31D-01
                    CP:  8.28D-01  6.31D-01
 E= -651.567865565783     Delta-E=       -0.000077873201 Rises=F Damp=F
 DIIS: error= 4.12D-04 at cycle   8 NSaved=   8.
 NSaved= 8 IEnMin= 8 EnMin= -651.567865565783     IErMin= 8 ErrMin= 4.12D-04
 ErrMax= 4.12D-04  0.00D+00 EMaxC= 1.00D-01 BMatC= 1.42D-05 BMatP= 8.91D-05
 IDIUse=3 WtCom= 9.96D-01 WtEn= 4.12D-03
 Coeff-Com: -0.494D-02 0.343D-02-0.913D-02 0.387D-02 0.157D-01 0.123D+00
 Coeff-Com:  0.310D+00 0.558D+00
 Coeff-En:   0.000D+00 0.000D+00 0.000D+00 0.000D+00 0.000D+00 0.000D+00
 Coeff-En:   0.000D+00 0.100D+01
 Coeff:     -0.492D-02 0.341D-02-0.909D-02 0.386D-02 0.157D-01 0.123D+00
 Coeff:      0.308D+00 0.560D+00
 Gap=     0.132 Goal=   None    Shift=    0.000
 RMSDP=1.66D-05 MaxDP=5.07D-04 DE=-7.79D-05 OVMax= 1.25D-03

 Cycle   9  Pass 1  IDiag  1:
 RMSU=  1.03D-05    CP:  9.76D-01  4.52D-01  7.38D-01  7.74D-01  6.39D-01
                    CP:  8.53D-01  7.19D-01  7.14D-01
 E= -651.567876510772     Delta-E=       -0.000010944989 Rises=F Damp=F
 DIIS: error= 1.56D-04 at cycle   9 NSaved=   9.
 NSaved= 9 IEnMin= 9 EnMin= -651.567876510772     IErMin= 9 ErrMin= 1.56D-04
 ErrMax= 1.56D-04  0.00D+00 EMaxC= 1.00D-01 BMatC= 2.22D-06 BMatP= 1.42D-05
 IDIUse=3 WtCom= 9.98D-01 WtEn= 1.56D-03
 Coeff-Com: -0.120D-02 0.119D-02-0.311D-02-0.523D-02-0.102D-01-0.621D-02
 Coeff-Com:  0.667D-01 0.284D+00 0.674D+00
 Coeff-En:   0.000D+00 0.000D+00 0.000D+00 0.000D+00 0.000D+00 0.000D+00
 Coeff-En:   0.000D+00 0.000D+00 0.100D+01
 Coeff:     -0.120D-02 0.118D-02-0.311D-02-0.522D-02-0.102D-01-0.620D-02
 Coeff:      0.665D-01 0.284D+00 0.675D+00
 Gap=     0.132 Goal=   None    Shift=    0.000
 RMSDP=6.26D-06 MaxDP=3.07D-04 DE=-1.09D-05 OVMax= 6.01D-04

 Cycle  10  Pass 1  IDiag  1:
 RMSU=  3.26D-06    CP:  9.76D-01  4.53D-01  7.38D-01  7.75D-01  6.38D-01
                    CP:  8.62D-01  7.34D-01  7.83D-01  7.80D-01
 E= -651.567878520066     Delta-E=       -0.000002009294 Rises=F Damp=F
 DIIS: error= 6.86D-05 at cycle  10 NSaved=  10.
 NSaved=10 IEnMin=10 EnMin= -651.567878520066     IErMin=10 ErrMin= 6.86D-05
 ErrMax= 6.86D-05  0.00D+00 EMaxC= 1.00D-01 BMatC= 2.86D-07 BMatP= 2.22D-06
 IDIUse=1 WtCom= 1.00D+00 WtEn= 0.00D+00
 Coeff-Com: -0.156D-03 0.288D-03-0.657D-03-0.282D-02-0.708D-02-0.204D-01
 Coeff-Com: -0.886D-02 0.510D-01 0.289D+00 0.700D+00
 Coeff:     -0.156D-03 0.288D-03-0.657D-03-0.282D-02-0.708D-02-0.204D-01
 Coeff:     -0.886D-02 0.510D-01 0.289D+00 0.700D+00
 Gap=     0.132 Goal=   None    Shift=    0.000
 RMSDP=2.52D-06 MaxDP=1.07D-04 DE=-2.01D-06 OVMax= 2.71D-04

 Cycle  11  Pass 1  IDiag  1:
 RMSU=  1.11D-06    CP:  9.76D-01  4.53D-01  7.38D-01  7.76D-01  6.39D-01
                    CP:  8.64D-01  7.42D-01  8.09D-01  8.48D-01  8.28D-01
 E= -651.567878779363     Delta-E=       -0.000000259297 Rises=F Damp=F
 DIIS: error= 1.84D-05 at cycle  11 NSaved=  11.
 NSaved=11 IEnMin=11 EnMin= -651.567878779363     IErMin=11 ErrMin= 1.84D-05
 ErrMax= 1.84D-05  0.00D+00 EMaxC= 1.00D-01 BMatC= 2.63D-08 BMatP= 2.86D-07
 IDIUse=1 WtCom= 1.00D+00 WtEn= 0.00D+00
 Coeff-Com: -0.119D-04 0.760D-04-0.653D-04-0.682D-03-0.228D-02-0.926D-02
 Coeff-Com: -0.104D-01-0.685D-02 0.613D-01 0.313D+00 0.655D+00
 Coeff:     -0.119D-04 0.760D-04-0.653D-04-0.682D-03-0.228D-02-0.926D-02
 Coeff:     -0.104D-01-0.685D-02 0.613D-01 0.313D+00 0.655D+00
 Gap=     0.132 Goal=   None    Shift=    0.000
 RMSDP=8.74D-07 MaxDP=4.95D-05 DE=-2.59D-07 OVMax= 5.91D-05

 Cycle  12  Pass 1  IDiag  1:
 RMSU=  4.04D-07    CP:  9.76D-01  4.53D-01  7.38D-01  7.76D-01  6.39D-01
                    CP:  8.63D-01  7.43D-01  8.16D-01  8.65D-01  8.65D-01
                    CP:  7.44D-01
 E= -651.567878802336     Delta-E=       -0.000000022973 Rises=F Damp=F
 DIIS: error= 4.09D-06 at cycle  12 NSaved=  12.
 NSaved=12 IEnMin=12 EnMin= -651.567878802336     IErMin=12 ErrMin= 4.09D-06
 ErrMax= 4.09D-06  0.00D+00 EMaxC= 1.00D-01 BMatC= 2.87D-09 BMatP= 2.63D-08
 IDIUse=1 WtCom= 1.00D+00 WtEn= 0.00D+00
 Coeff-Com:  0.226D-05 0.191D-04 0.183D-04-0.871D-04-0.546D-03-0.311D-02
 Coeff-Com: -0.470D-02-0.946D-02 0.125D-02 0.889D-01 0.356D+00 0.572D+00
 Coeff:      0.226D-05 0.191D-04 0.183D-04-0.871D-04-0.546D-03-0.311D-02
 Coeff:     -0.470D-02-0.946D-02 0.125D-02 0.889D-01 0.356D+00 0.572D+00
 Gap=     0.132 Goal=   None    Shift=    0.000
 RMSDP=2.48D-07 MaxDP=9.23D-06 DE=-2.30D-08 OVMax= 2.16D-05

 Cycle  13  Pass 1  IDiag  1:
 RMSU=  1.39D-07    CP:  9.76D-01  4.53D-01  7.38D-01  7.77D-01  6.39D-01
                    CP:  8.63D-01  7.44D-01  8.16D-01  8.67D-01  8.71D-01
                    CP:  8.03D-01  7.65D-01
 E= -651.567878804840     Delta-E=       -0.000000002505 Rises=F Damp=F
 DIIS: error= 1.54D-06 at cycle  13 NSaved=  13.
 NSaved=13 IEnMin=13 EnMin= -651.567878804840     IErMin=13 ErrMin= 1.54D-06
 ErrMax= 1.54D-06  0.00D+00 EMaxC= 1.00D-01 BMatC= 3.13D-10 BMatP= 2.87D-09
 IDIUse=1 WtCom= 1.00D+00 WtEn= 0.00D+00
 Coeff-Com: -0.325D-05 0.303D-05 0.120D-04 0.494D-04 0.165D-04-0.561D-03
 Coeff-Com: -0.127D-02-0.478D-02-0.825D-02 0.740D-02 0.122D+00 0.327D+00
 Coeff-Com:  0.559D+00
 Coeff:     -0.325D-05 0.303D-05 0.120D-04 0.494D-04 0.165D-04-0.561D-03
 Coeff:     -0.127D-02-0.478D-02-0.825D-02 0.740D-02 0.122D+00 0.327D+00
 Coeff:      0.559D+00
 Gap=     0.132 Goal=   None    Shift=    0.000
 RMSDP=9.70D-08 MaxDP=4.63D-06 DE=-2.50D-09 OVMax= 4.72D-06

 Cycle  14  Pass 1  IDiag  1:
 RMSU=  6.05D-08    CP:  9.76D-01  4.53D-01  7.38D-01  7.77D-01  6.39D-01
                    CP:  8.64D-01  7.44D-01  8.16D-01  8.66D-01  8.74D-01
                    CP:  8.13D-01  7.92D-01  7.18D-01
 E= -651.567878805101     Delta-E=       -0.000000000260 Rises=F Damp=F
 DIIS: error= 1.61D-07 at cycle  14 NSaved=  14.
 NSaved=14 IEnMin=14 EnMin= -651.567878805101     IErMin=14 ErrMin= 1.61D-07
 ErrMax= 1.61D-07  0.00D+00 EMaxC= 1.00D-01 BMatC= 1.26D-11 BMatP= 3.13D-10
 IDIUse=1 WtCom= 1.00D+00 WtEn= 0.00D+00
 Coeff-Com: -0.221D-05-0.132D-06 0.152D-05 0.265D-04 0.704D-04 0.896D-04
 Coeff-Com:  0.162D-04-0.874D-03-0.335D-02-0.720D-02 0.880D-02 0.665D-01
 Coeff-Com:  0.212D+00 0.724D+00
 Coeff:     -0.221D-05-0.132D-06 0.152D-05 0.265D-04 0.704D-04 0.896D-04
 Coeff:      0.162D-04-0.874D-03-0.335D-02-0.720D-02 0.880D-02 0.665D-01
 Coeff:      0.212D+00 0.724D+00
 Gap=     0.132 Goal=   None    Shift=    0.000
 RMSDP=2.67D-08 MaxDP=1.03D-06 DE=-2.60D-10 OVMax= 1.59D-06

 Cycle  15  Pass 1  IDiag  1:
 RMSU=  1.76D-08    CP:  9.76D-01  4.53D-01  7.38D-01  7.77D-01  6.39D-01
                    CP:  8.64D-01  7.44D-01  8.16D-01  8.66D-01  8.73D-01
                    CP:  8.18D-01  8.10D-01  7.85D-01  9.84D-01
 E= -651.567878805105     Delta-E=       -0.000000000005 Rises=F Damp=F
 DIIS: error= 5.86D-08 at cycle  15 NSaved=  15.
 NSaved=15 IEnMin=15 EnMin= -651.567878805105     IErMin=15 ErrMin= 5.86D-08
 ErrMax= 5.86D-08  0.00D+00 EMaxC= 1.00D-01 BMatC= 2.81D-12 BMatP= 1.26D-11
 IDIUse=1 WtCom= 1.00D+00 WtEn= 0.00D+00
 Coeff-Com: -0.107D-05-0.705D-08-0.501D-06 0.837D-05 0.340D-04 0.715D-04
 Coeff-Com:  0.105D-03-0.852D-04-0.955D-03-0.410D-02-0.447D-02 0.107D-01
 Coeff-Com:  0.667D-01 0.412D+00 0.520D+00
 Coeff:     -0.107D-05-0.705D-08-0.501D-06 0.837D-05 0.340D-04 0.715D-04
 Coeff:      0.105D-03-0.852D-04-0.955D-03-0.410D-02-0.447D-02 0.107D-01
 Coeff:      0.667D-01 0.412D+00 0.520D+00
 Gap=     0.132 Goal=   None    Shift=    0.000
 RMSDP=8.92D-09 MaxDP=3.25D-07 DE=-4.55D-12 OVMax= 7.52D-07

 Error on total polarization charges =  0.00906
 SCF Done:  E(RB3LYP) =  -651.567878805     A.U. after   15 cycles
            NFock= 15  Conv=0.89D-08     -V/T= 2.0095
 KE= 6.454553584673D+02 PE=-3.348806867786D+03 EE= 1.135736530091D+03
 Leave Link  502 at Tue Jan 27 17:51:16 2026, MaxMem=  4294967296 cpu:             295.8 elap:              19.7
 (Enter /root/g16/l801.exe)
 DoSCS=F DFT=T ScalE2(SS,OS)=  1.000000  1.000000
 Range of M.O.s used for correlation:     1   256
 NBasis=   256 NAE=    51 NBE=    51 NFC=     0 NFV=     0
 NROrb=    256 NOA=    51 NOB=    51 NVA=   205 NVB=   205
 Leave Link  801 at Tue Jan 27 17:51:17 2026, MaxMem=  4294967296 cpu:               0.4 elap:               0.0
 (Enter /root/g16/l1101.exe)
 Using compressed storage, NAtomX=    26.
 Will process     27 centers per pass.
   1 Symmetry operations used in ECPInt.
 ECPInt:  NShTT=    7260 NPrTT=   26324 LenC2=    7132 LenP2D=   19666.
 LDataN:  DoStor=T MaxTD1= 5 Len=  102
 R6Disp: Adding Grimme-D3(BJ) dispersion energy 1st derivatives to the gradient.
 Leave Link 1101 at Tue Jan 27 17:51:17 2026, MaxMem=  4294967296 cpu:               3.3 elap:               0.2
 (Enter /root/g16/l1102.exe)
 Symmetrizing basis deriv contribution to polar:
 IMax=3 JMax=2 DiffMx= 0.00D+00
 Leave Link 1102 at Tue Jan 27 17:51:17 2026, MaxMem=  4294967296 cpu:               0.4 elap:               0.0
 (Enter /root/g16/l1110.exe)
 Forming Gx(P) for the SCF density, NAtomX=    26.
 Integral derivatives from FoFJK, PRISM(SPDF).
 Do as many integral derivatives as possible in FoFJK.
 G2DrvN: MDV=    4294965288.
 G2DrvN: will do    27 centers at a time, making    1 passes.
 Calling FoFCou, ICntrl=  3107 FMM=F I1Cent=   0 AccDes= 0.00D+00.
 FoFJK:  IHMeth= 1 ICntrl=    3107 DoSepK=F KAlg= 0 I1Cent=           0 FoldK=F
 IRaf=         0 NMat=       1 IRICut=       1 DoRegI=T DoRafI=F ISym2E= 0 IDoP0=0 IntGTp=1.
 FoFCou: FMM=F IPFlag=           0 FMFlag=      100000 FMFlg1=           0
         NFxFlg=           0 DoJE=F BraDBF=F KetDBF=F FulRan=T
         wScrn=  0.000000 ICntrl=      3107 IOpCl=  0 I1Cent=           0 NGrid=           0
         NMat0=    1 NMatS0=      1 NMatT0=    0 NMatD0=    1 NMtDS0=    0 NMtDT0=    0
 Symmetry not used in FoFCou.
