 Entering Gaussian System, Link 0=g16
 Initial command:
 /root/g16/l1.exe "/root/g16/scratch/gau_root_150924/Gau-150931.inp" -scrdir="/root/g16/scratch/gau_root_150924/"
 Entering Link 1 = /root/g16/l1.exe PID=    150933.
  
 Copyright (c) 1988,1990,1992,1993,1995,1998,2003,2009,2016,
            Gaussian, Inc.  All Rights Reserved.
  
 This is part of the Gaussian(R) 16 program.  It is based on
 the Gaussian(R) 09 system (copyright 2009, Gaussian, Inc.),
 the Gaussian(R) 03 system (copyright 2003, Gaussian, Inc.),
 the Gaussian(R) 98 system (copyright 1998, Gaussian, Inc.),
 the Gaussian(R) 94 system (copyright 1995, Gaussian, Inc.),
 the Gaussian 92(TM) system (copyright 1992, Gaussian, Inc.),
 the Gaussian 90(TM) system (copyright 1990, Gaussian, Inc.),
 the Gaussian 88(TM) system (copyright 1988, Gaussian, Inc.),
 the Gaussian 86(TM) system (copyright 1986, Carnegie Mellon
 University), and the Gaussian 82(TM) system (copyright 1983,
 Carnegie Mellon University). Gaussian is a federally registered
 trademark of Gaussian, Inc.
  
 This software contains proprietary and confidential information,
 including trade secrets, belonging to Gaussian, Inc.
  
 This software is provided under written license and may be
 used, copied, transmitted, or stored only in accord with that
 written license.
  
 The following legend is applicable only to US Government
 contracts under FAR:
  
                    RESTRICTED RIGHTS LEGEND
  
 Use, reproduction and disclosure by the US Government is
 subject to restrictions as set forth in subparagraphs (a)
 and (c) of the Commercial Computer Software - Restricted
 Rights clause in FAR 52.227-19.
  
 Gaussian, Inc.
 340 Quinnipiac St., Bldg. 40, Wallingford CT 06492
  
  
 ---------------------------------------------------------------
 Warning -- This program may not be used in any manner that
 competes with the business of Gaussian, Inc. or will provide
 assistance to any competitor of Gaussian, Inc.  The licensee
 of this program is prohibited from giving any competitor of
 Gaussian, Inc. access to this program.  By using this program,
 the user acknowledges that Gaussian, Inc. is engaged in the
 business of creating and licensing software in the field of
 computational chemistry and represents and warrants to the
 licensee that it is not a competitor of Gaussian, Inc. and that
 it will not use this program in any manner prohibited above.
 ---------------------------------------------------------------
  

 Cite this work as:
 Gaussian 16, Revision A.03,
 M. J. Frisch, G. W. Trucks, H. B. Schlegel, G. E. Scuseria, 
 M. A. Robb, J. R. Cheeseman, G. Scalmani, V. Barone, 
 G. A. Petersson, H. Nakatsuji, X. Li, M. Caricato, A. V. Marenich, 
 J. Bloino, B. G. Janesko, R. Gomperts, B. Mennucci, H. P. Hratchian, 
 J. V. Ortiz, A. F. Izmaylov, J. L. Sonnenberg, D. Williams-Young, 
 F. Ding, F. Lipparini, F. Egidi, J. Goings, B. Peng, A. Petrone, 
 T. Henderson, D. Ranasinghe, V. G. Zakrzewski, J. Gao, N. Rega, 
 G. Zheng, W. Liang, M. Hada, M. Ehara, K. Toyota, R. Fukuda, 
 J. Hasegawa, M. Ishida, T. Nakajima, Y. Honda, O. Kitao, H. Nakai, 
 T. Vreven, K. Throssell, J. A. Montgomery, Jr., J. E. Peralta, 
 F. Ogliaro, M. J. Bearpark, J. J. Heyd, E. N. Brothers, K. N. Kudin, 
 V. N. Staroverov, T. A. Keith, R. Kobayashi, J. Normand, 
 K. Raghavachari, A. P. Rendell, J. C. Burant, S. S. Iyengar, 
 J. Tomasi, M. Cossi, J. M. Millam, M. Klene, C. Adamo, R. Cammi, 
 J. W. Ochterski, R. L. Martin, K. Morokuma, O. Farkas, 
 J. B. Foresman, and D. J. Fox, Gaussian, Inc., Wallingford CT, 2016.
 
 ******************************************
 Gaussian 16:  ES64L-G16RevA.03 25-Dec-2016
                31-Jan-2026 
 ******************************************
 %chk=conf_001.chk
 %mem=4GB
 %nprocshared=4
 Will use up to    4 processors via shared memory.
 -------------------------------------------------------
 #p HF/STO-3G SCRF=(PCM,Solvent=Acetone) Opt=CalcFC Freq
 -------------------------------------------------------
 1/10=4,18=20,19=15,26=6,38=1/1,3;
 2/9=110,12=2,17=6,18=5,40=1/2;
 3/6=3,11=9,25=1,30=1,70=2201,71=2,72=19,140=1/1,2,3;
 4//1;
 5/5=2,38=5,53=19/2;
 8/6=4,10=90,11=11/1;
 11/6=1,8=1,9=11,15=111,16=1/1,2,10;
 10/6=1,13=1/2;
 6/7=2,8=2,9=2,10=2,28=1/1;
 7/10=1,18=20,25=1/1,2,3,16;
 1/10=4,18=20,19=15,26=6/3(2);
 2/9=110/2;
 99//99;
 2/9=110/2;
 3/6=3,11=9,25=1,30=1,70=2205,71=1,72=19/1,2,3;
 4/5=5,16=3,69=1/1;
 5/5=2,38=5,53=19/2;
 7//1,2,3,16;
 1/18=20,19=15,26=6/3(-5);
 2/9=110/2;
 6/7=2,8=2,9=2,10=2,19=2,28=1/1;
 99/9=1/99;
 Leave Link    1 at Sat Jan 31 20:59:54 2026, MaxMem=   536870912 cpu:               0.1 elap:               0.0
 (Enter /root/g16/l101.exe)
 ------------------
 butadiene_conf_001
 ------------------
 Symbolic Z-matrix:
 Charge =  0 Multiplicity = 1
 C                     1.51609  -0.02886   0.51423 
 C                     0.72188  -0.0941   -0.54871 
 C                    -0.72186   0.09385  -0.54873 
 C                    -1.51611   0.0291    0.51424 
 H                     2.57933  -0.17871   0.43384 
 H                     1.13815   0.1873    1.49907 
 H                     1.15792  -0.28554  -1.52195 
 H                    -1.15794   0.2842   -1.52215 
 H                    -2.57936   0.17876   0.43376 
 H                    -1.1381   -0.18598   1.49931 
 
 ITRead=  0  0  0  0  0  0  0  0  0  0
 MicOpt= -1 -1 -1 -1 -1 -1 -1 -1 -1 -1
 NAtoms=     10 NQM=       10 NQMF=       0 NMMI=      0 NMMIF=      0
                NMic=       0 NMicF=      0.
                    Isotopes and Nuclear Properties:
 (Nuclear quadrupole moments (NQMom) in fm**2, nuclear magnetic moments (NMagM)
  in nuclear magnetons)

  Atom         1           2           3           4           5           6           7           8           9          10
 IAtWgt=          12          12          12          12           1           1           1           1           1           1
 AtmWgt=  12.0000000  12.0000000  12.0000000  12.0000000   1.0078250   1.0078250   1.0078250   1.0078250   1.0078250   1.0078250
 NucSpn=           0           0           0           0           1           1           1           1           1           1
 AtZEff=  -0.0000000  -0.0000000  -0.0000000  -0.0000000  -0.0000000  -0.0000000  -0.0000000  -0.0000000  -0.0000000  -0.0000000
 NQMom=    0.0000000   0.0000000   0.0000000   0.0000000   0.0000000   0.0000000   0.0000000   0.0000000   0.0000000   0.0000000
 NMagM=    0.0000000   0.0000000   0.0000000   0.0000000   2.7928460   2.7928460   2.7928460   2.7928460   2.7928460   2.7928460
 AtZNuc=   6.0000000   6.0000000   6.0000000   6.0000000   1.0000000   1.0000000   1.0000000   1.0000000   1.0000000   1.0000000
 Leave Link  101 at Sat Jan 31 20:59:54 2026, MaxMem=   536870912 cpu:               0.7 elap:               0.2
 (Enter /root/g16/l103.exe)

 GradGradGradGradGradGradGradGradGradGradGradGradGradGradGradGradGradGrad
 Berny optimization.
 Initialization pass.
                           ----------------------------
                           !    Initial Parameters    !
                           ! (Angstroms and Degrees)  !
 --------------------------                            --------------------------
 ! Name  Definition              Value          Derivative Info.                !
 --------------------------------------------------------------------------------
 ! R1    R(1,2)                  1.3285         calculate D2E/DX2 analytically  !
 ! R2    R(1,5)                  1.0767         calculate D2E/DX2 analytically  !
 ! R3    R(1,6)                  1.0768         calculate D2E/DX2 analytically  !
 ! R4    R(2,3)                  1.4559         calculate D2E/DX2 analytically  !
 ! R5    R(2,7)                  1.0835         calculate D2E/DX2 analytically  !
 ! R6    R(3,4)                  1.3285         calculate D2E/DX2 analytically  !
 ! R7    R(3,8)                  1.0835         calculate D2E/DX2 analytically  !
 ! R8    R(4,9)                  1.0767         calculate D2E/DX2 analytically  !
 ! R9    R(4,10)                 1.0768         calculate D2E/DX2 analytically  !
 ! A1    A(2,1,5)              121.585          calculate D2E/DX2 analytically  !
 ! A2    A(2,1,6)              122.1281         calculate D2E/DX2 analytically  !
 ! A3    A(5,1,6)              116.283          calculate D2E/DX2 analytically  !
 ! A4    A(1,2,3)              125.9095         calculate D2E/DX2 analytically  !
 ! A5    A(1,2,7)              119.1287         calculate D2E/DX2 analytically  !
 ! A6    A(3,2,7)              114.9525         calculate D2E/DX2 analytically  !
 ! A7    A(2,3,4)              125.9122         calculate D2E/DX2 analytically  !
 ! A8    A(2,3,8)              114.9486         calculate D2E/DX2 analytically  !
 ! A9    A(4,3,8)              119.1292         calculate D2E/DX2 analytically  !
 ! A10   A(3,4,9)              121.5863         calculate D2E/DX2 analytically  !
 ! A11   A(3,4,10)             122.1283         calculate D2E/DX2 analytically  !
 ! A12   A(9,4,10)             116.2819         calculate D2E/DX2 analytically  !
 ! D1    D(5,1,2,3)           -179.9193         calculate D2E/DX2 analytically  !
 ! D2    D(5,1,2,7)             -1.0896         calculate D2E/DX2 analytically  !
 ! D3    D(6,1,2,3)             -0.6588         calculate D2E/DX2 analytically  !
 ! D4    D(6,1,2,7)            178.1709         calculate D2E/DX2 analytically  !
 ! D5    D(1,2,3,4)            -17.8554         calculate D2E/DX2 analytically  !
 ! D6    D(1,2,3,8)            163.31           calculate D2E/DX2 analytically  !
 ! D7    D(7,2,3,4)            163.2721         calculate D2E/DX2 analytically  !
 ! D8    D(7,2,3,8)            -15.5624         calculate D2E/DX2 analytically  !
 ! D9    D(2,3,4,9)           -179.9088         calculate D2E/DX2 analytically  !
 ! D10   D(2,3,4,10)            -0.6192         calculate D2E/DX2 analytically  !
 ! D11   D(8,3,4,9)             -1.1186         calculate D2E/DX2 analytically  !
 ! D12   D(8,3,4,10)           178.1711         calculate D2E/DX2 analytically  !
 --------------------------------------------------------------------------------
 Trust Radius=3.00D-01 FncErr=5.00D-06 GrdErr=5.00D-06 EigMax=2.50D+02 EigMin=1.00D-04
 Number of steps in this run=     43 maximum allowed number of steps=    100.
 GradGradGradGradGradGradGradGradGradGradGradGradGradGradGradGradGradGrad

 Leave Link  103 at Sat Jan 31 20:59:54 2026, MaxMem=   536870912 cpu:               0.0 elap:               0.0
 (Enter /root/g16/l202.exe)
                          Input orientation:                          
 ---------------------------------------------------------------------
 Center     Atomic      Atomic             Coordinates (Angstroms)
 Number     Number       Type             X           Y           Z
 ---------------------------------------------------------------------
      1          6           0        1.516094   -0.028856    0.514226
      2          6           0        0.721880   -0.094100   -0.548709
      3          6           0       -0.721860    0.093850   -0.548733
      4          6           0       -1.516115    0.029105    0.514243
      5          1           0        2.579328   -0.178708    0.433837
      6          1           0        1.138153    0.187299    1.499066
      7          1           0        1.157925   -0.285541   -1.521947
      8          1           0       -1.157938    0.284197   -1.522148
      9          1           0       -2.579365    0.178760    0.433762
     10          1           0       -1.138105   -0.185981    1.499311
 ---------------------------------------------------------------------
                    Distance matrix (angstroms):
                    1          2          3          4          5
     1  C    0.000000
     2  C    1.328481   0.000000
     3  C    2.480600   1.455923   0.000000
     4  C    3.032763   2.480659   1.328514   0.000000
     5  H    1.076747   2.103014   3.455079   4.101500   0.000000
     6  H    1.076788   2.108519   2.768006   2.835496   1.829115
     7  H    2.083308   1.083502   2.150505   3.375731   2.420102
     8  H    3.375688   2.150444   1.083483   2.083327   4.243503
     9  H    4.101508   3.455130   2.103053   1.076743   5.171063
    10  H    2.835463   2.768098   2.108565   1.076807   3.867117
                    6          7          8          9         10
     6  H    0.000000
     7  H    3.057857   0.000000
     8  H    3.795940   2.384916   0.000000
     9  H    3.867154   4.243549   2.420156   0.000000
    10  H    2.306661   3.796006   3.057887   1.829115   0.000000
 Stoichiometry    C4H6
 Framework group  C1[X(C4H6)]
 Deg. of freedom    24
 Full point group                 C1      NOp   1
 Largest Abelian subgroup         C1      NOp   1
 Largest concise Abelian subgroup C1      NOp   1
                         Standard orientation:                         
 ---------------------------------------------------------------------
 Center     Atomic      Atomic             Coordinates (Angstroms)
 Number     Number       Type             X           Y           Z
 ---------------------------------------------------------------------
      1          6           0        1.515734   -0.500649    0.043587
      2          6           0        0.725561    0.562326   -0.059239
      3          6           0       -0.725521    0.562318    0.059376
      4          6           0       -1.515773   -0.500617   -0.043685
      5          1           0        2.584924   -0.420232   -0.055163
      6          1           0        1.127872   -1.485555    0.241061
      7          1           0        1.170277    1.535621   -0.229250
      8          1           0       -1.170207    1.535678    0.228963
      9          1           0       -2.584968   -0.420164    0.054923
     10          1           0       -1.127904   -1.485620   -0.240767
 ---------------------------------------------------------------------
 Rotational constants (GHZ):          21.4963272           5.8138948           4.6060869
 Leave Link  202 at Sat Jan 31 20:59:54 2026, MaxMem=   536870912 cpu:               0.0 elap:               0.0
 (Enter /root/g16/l301.exe)
 Standard basis: STO-3G (5D, 7F)
 Ernie: Thresh=  0.10000D-02 Tol=  0.10000D-05 Strict=F.
 There are    26 symmetry adapted cartesian basis functions of A   symmetry.
 There are    26 symmetry adapted basis functions of A   symmetry.
    26 basis functions,    78 primitive gaussians,    26 cartesian basis functions
    15 alpha electrons       15 beta electrons
       nuclear repulsion energy       105.6112536932 Hartrees.
 IExCor=    0 DFT=F Ex=HF Corr=None ExCW=0 ScaHFX=  1.000000
 ScaDFX=  1.000000  1.000000  1.000000  1.000000 ScalE2=  1.000000  1.000000
 IRadAn=      5 IRanWt=     -1 IRanGd=            0 ICorTp=0 IEmpDi=  4
 NAtoms=   10 NActive=   10 NUniq=   10 SFac= 1.00D+00 NAtFMM=   60 NAOKFM=F Big=F
 Integral buffers will be    131072 words long.
 Raffenetti 1 integral format.
 Two-electron integral symmetry is turned on.
 Force inversion solution in PCM.
 ------------------------------------------------------------------------------
 Polarizable Continuum Model (PCM)
 =================================
 Model                : PCM.
 Atomic radii         : UFF (Universal Force Field).
 Polarization charges : Total charges.
 Charge compensation  : None.
 Solution method      : Matrix inversion.
 Cavity type          : Scaled VdW (van der Waals Surface) (Alpha=1.100).
 Cavity algorithm     : GePol (No added spheres)
                        Default sphere list used, NSphG=   10.
                        Lebedev-Laikov grids with approx.  5.0 points / Ang**2.
                        Smoothing algorithm: York/Karplus (Gamma=1.0000).
                        Polarization charges: spherical gaussians, with
                                              point-specific exponents (IZeta= 3).
                        Self-potential: point-specific (ISelfS= 7).
                        Self-field    : sphere-specific E.n sum rule (ISelfD= 2).
 1st derivatives      : Analytical E(r).r(x)/FMM algorithm (CHGder, D1EAlg=3).
                        Cavity 1st derivative terms included.
 2nd derivatives      : Analytical E(r).r(xy)/FMM algorithm (CHGder, D2EAlg=3).
                        Cavity 2nd derivative terms included.
 Solvent              : Acetone, Eps=  20.493000 Eps(inf)=   1.846337
 ------------------------------------------------------------------------------
 Spheres list:
 ISph  on   Nord     Re0    Alpha      Xe            Ye            Ze
    1   C      1    1.9255  1.100      1.515734     -0.500649      0.043587
    2   C      2    1.9255  1.100      0.725561      0.562326     -0.059239
    3   C      3    1.9255  1.100     -0.725521      0.562318      0.059376
    4   C      4    1.9255  1.100     -1.515773     -0.500617     -0.043685
    5   H      5    1.4430  1.100      2.584924     -0.420232     -0.055163
    6   H      6    1.4430  1.100      1.127872     -1.485555      0.241061
    7   H      7    1.4430  1.100      1.170277      1.535621     -0.229250
    8   H      8    1.4430  1.100     -1.170207      1.535678      0.228963
    9   H      9    1.4430  1.100     -2.584968     -0.420164      0.054923
   10   H     10    1.4430  1.100     -1.127904     -1.485620     -0.240767
 ------------------------------------------------------------------------------
 GePol: Number of generator spheres                  =      10
 GePol: Total number of spheres                      =      10
 GePol: Number of exposed spheres                    =      10 (100.00%)
 GePol: Number of points                             =     918
 GePol: Average weight of points                     =       0.14
 GePol: Minimum weight of points                     =   0.11D-06
 GePol: Maximum weight of points                     =    0.20577
 GePol: Number of points with low weight             =      50
 GePol: Fraction of low-weight points (<1% of avg)   =       5.45%
 GePol: Cavity surface area                          =    125.574 Ang**2
 GePol: Cavity volume                                =    111.055 Ang**3
 Leave Link  301 at Sat Jan 31 20:59:54 2026, MaxMem=   536870912 cpu:               0.1 elap:               0.0
 (Enter /root/g16/l302.exe)
 NPDir=0 NMtPBC=     1 NCelOv=     1 NCel=       1 NClECP=     1 NCelD=      1
         NCelK=      1 NCelE2=     1 NClLst=     1 CellRange=     0.0.
 One-electron integrals computed using PRISM.
 One-electron integral symmetry used in STVInt
 NBasis=    26 RedAO= T EigKep=  1.78D-01  NBF=    26
 NBsUse=    26 1.00D-06 EigRej= -1.00D+00 NBFU=    26
 Leave Link  302 at Sat Jan 31 20:59:54 2026, MaxMem=   536870912 cpu:               0.2 elap:               0.0
 (Enter /root/g16/l303.exe)
 DipDrv:  MaxL=1.
 Leave Link  303 at Sat Jan 31 20:59:54 2026, MaxMem=   536870912 cpu:               0.1 elap:               0.0
 (Enter /root/g16/l401.exe)
 ExpMin= 1.69D-01 ExpMax= 7.16D+01 ExpMxC= 7.16D+01 IAcc=3 IRadAn=         5 AccDes= 0.00D+00
 Harris functional with IExCor=  205 and IRadAn=       5 diagonalized for initial guess.
 HarFok:  IExCor=  205 AccDes= 0.00D+00 IRadAn=         5 IDoV= 1 UseB2=F ITyADJ=14
 ICtDFT=  3500011 ScaDFX=  1.000000  1.000000  1.000000  1.000000
 FoFCou: FMM=F IPFlag=           0 FMFlag=      100000 FMFlg1=           0
         NFxFlg=           0 DoJE=T BraDBF=F KetDBF=T FulRan=T
         wScrn=  0.000000 ICntrl=       500 IOpCl=  0 I1Cent=   200000004 NGrid=           0
         NMat0=    1 NMatS0=      1 NMatT0=    0 NMatD0=    1 NMtDS0=    0 NMtDT0=    0
 Petite list used in FoFCou.
 Harris En= -153.294089116872    
 JPrj=0 DoOrth=F DoCkMO=F.
 Leave Link  401 at Sat Jan 31 20:59:54 2026, MaxMem=   536870912 cpu:               0.4 elap:               0.1
 (Enter /root/g16/l502.exe)
 Keep R1 ints in memory in canonical form, NReq=1542440.
 FoFCou: FMM=F IPFlag=           0 FMFlag=           0 FMFlg1=           0
         NFxFlg=           0 DoJE=F BraDBF=F KetDBF=F FulRan=T
         wScrn=  0.000000 ICntrl=       600 IOpCl=  0 I1Cent=           0 NGrid=           0
         NMat0=    1 NMatS0=    351 NMatT0=    0 NMatD0=    1 NMtDS0=    0 NMtDT0=    0
 Symmetry not used in FoFCou.
 Two-electron integral symmetry not used.
 Closed shell SCF:
 Using DIIS extrapolation, IDIIS=  1040.
 NGot=   536870912 LenX=   536806970 LenY=   536805853
 Requested convergence on RMS density matrix=1.00D-08 within 128 cycles.
 Requested convergence on MAX density matrix=1.00D-06.
 Requested convergence on             energy=1.00D-06.
 No special actions if energy rises.

 Cycle   1  Pass 1  IDiag  1:
 Inv3:  Mode=1 IEnd=     2528172.
 Iteration    1 A*A^-1 deviation from unit magnitude is 2.55D-15 for    563.
 Iteration    1 A*A^-1 deviation from orthogonality  is 1.46D-15 for    650     43.
 Iteration    1 A^-1*A deviation from unit magnitude is 2.89D-15 for    733.
 Iteration    1 A^-1*A deviation from orthogonality  is 2.44D-15 for    763    474.
 E= -152.939941055892    
 DIIS: error= 4.79D-02 at cycle   1 NSaved=   1.
 NSaved= 1 IEnMin= 1 EnMin= -152.939941055892     IErMin= 1 ErrMin= 4.79D-02
 ErrMax= 4.79D-02  0.00D+00 EMaxC= 1.00D-01 BMatC= 7.72D-02 BMatP= 7.72D-02
 IDIUse=3 WtCom= 5.21D-01 WtEn= 4.79D-01
 Coeff-Com:  0.100D+01
 Coeff-En:   0.100D+01
 Coeff:      0.100D+01
 Gap=     0.509 Goal=   None    Shift=    0.000
 GapD=    0.509 DampG=2.000 DampE=0.500 DampFc=1.0000 IDamp=-1.
 RMSDP=1.32D-02 MaxDP=8.49D-02              OVMax= 0.00D+00

 Cycle   2  Pass 1  IDiag  1:
 E= -153.015382453389     Delta-E=       -0.075441397497 Rises=F Damp=F
 DIIS: error= 5.46D-03 at cycle   2 NSaved=   2.
 NSaved= 2 IEnMin= 2 EnMin= -153.015382453389     IErMin= 2 ErrMin= 5.46D-03
 ErrMax= 5.46D-03  0.00D+00 EMaxC= 1.00D-01 BMatC= 6.25D-04 BMatP= 7.72D-02
 IDIUse=3 WtCom= 9.45D-01 WtEn= 5.46D-02
 Coeff-Com: -0.284D-01 0.103D+01
 Coeff-En:   0.000D+00 0.100D+01
 Coeff:     -0.268D-01 0.103D+01
 Gap=     0.514 Goal=   None    Shift=    0.000
 RMSDP=1.30D-03 MaxDP=8.28D-03 DE=-7.54D-02 OVMax= 0.00D+00

 Cycle   3  Pass 1  IDiag  1:
 E= -153.016029043990     Delta-E=       -0.000646590601 Rises=F Damp=F
 DIIS: error= 2.45D-03 at cycle   3 NSaved=   3.
 NSaved= 3 IEnMin= 3 EnMin= -153.016029043990     IErMin= 3 ErrMin= 2.45D-03
 ErrMax= 2.45D-03  0.00D+00 EMaxC= 1.00D-01 BMatC= 7.05D-05 BMatP= 6.25D-04
 IDIUse=3 WtCom= 9.75D-01 WtEn= 2.45D-02
 Coeff-Com: -0.108D-01 0.182D+00 0.829D+00
 Coeff-En:   0.000D+00 0.000D+00 0.100D+01
 Coeff:     -0.105D-01 0.178D+00 0.833D+00
 Gap=     0.515 Goal=   None    Shift=    0.000
 RMSDP=5.01D-04 MaxDP=3.72D-03 DE=-6.47D-04 OVMax= 0.00D+00

 Cycle   4  Pass 1  IDiag  1:
 E= -153.016128370864     Delta-E=       -0.000099326874 Rises=F Damp=F
 DIIS: error= 7.65D-04 at cycle   4 NSaved=   4.
 NSaved= 4 IEnMin= 4 EnMin= -153.016128370864     IErMin= 4 ErrMin= 7.65D-04
 ErrMax= 7.65D-04  0.00D+00 EMaxC= 1.00D-01 BMatC= 6.27D-06 BMatP= 7.05D-05
 IDIUse=3 WtCom= 9.92D-01 WtEn= 7.65D-03
 Coeff-Com:  0.163D-02-0.656D-01 0.990D-01 0.965D+00
 Coeff-En:   0.000D+00 0.000D+00 0.000D+00 0.100D+01
 Coeff:      0.162D-02-0.651D-01 0.983D-01 0.965D+00
 Gap=     0.516 Goal=   None    Shift=    0.000
 RMSDP=1.59D-04 MaxDP=1.50D-03 DE=-9.93D-05 OVMax= 0.00D+00

 Cycle   5  Pass 1  IDiag  1:
 E= -153.016141812690     Delta-E=       -0.000013441826 Rises=F Damp=F
 DIIS: error= 1.74D-04 at cycle   5 NSaved=   5.
 NSaved= 5 IEnMin= 5 EnMin= -153.016141812690     IErMin= 5 ErrMin= 1.74D-04
 ErrMax= 1.74D-04  0.00D+00 EMaxC= 1.00D-01 BMatC= 2.12D-07 BMatP= 6.27D-06
 IDIUse=3 WtCom= 9.98D-01 WtEn= 1.74D-03
 Coeff-Com:  0.654D-04 0.490D-02-0.671D-01-0.200D+00 0.126D+01
 Coeff-En:   0.000D+00 0.000D+00 0.000D+00 0.000D+00 0.100D+01
 Coeff:      0.652D-04 0.489D-02-0.670D-01-0.200D+00 0.126D+01
 Gap=     0.517 Goal=   None    Shift=    0.000
 RMSDP=5.45D-05 MaxDP=6.43D-04 DE=-1.34D-05 OVMax= 0.00D+00

 Cycle   6  Pass 1  IDiag  1:
 E= -153.016142706401     Delta-E=       -0.000000893710 Rises=F Damp=F
 DIIS: error= 1.53D-05 at cycle   6 NSaved=   6.
 NSaved= 6 IEnMin= 6 EnMin= -153.016142706401     IErMin= 6 ErrMin= 1.53D-05
 ErrMax= 1.53D-05  0.00D+00 EMaxC= 1.00D-01 BMatC= 3.21D-09 BMatP= 2.12D-07
 IDIUse=1 WtCom= 1.00D+00 WtEn= 0.00D+00
 Coeff-Com: -0.500D-04-0.377D-03 0.200D-01 0.529D-01-0.428D+00 0.136D+01
 Coeff:     -0.500D-04-0.377D-03 0.200D-01 0.529D-01-0.428D+00 0.136D+01
 Gap=     0.517 Goal=   None    Shift=    0.000
 RMSDP=6.53D-06 MaxDP=6.87D-05 DE=-8.94D-07 OVMax= 0.00D+00

 Cycle   7  Pass 1  IDiag  1:
 E= -153.016142718108     Delta-E=       -0.000000011707 Rises=F Damp=F
 DIIS: error= 1.10D-06 at cycle   7 NSaved=   7.
 NSaved= 7 IEnMin= 7 EnMin= -153.016142718108     IErMin= 7 ErrMin= 1.10D-06
 ErrMax= 1.10D-06  0.00D+00 EMaxC= 1.00D-01 BMatC= 4.07D-11 BMatP= 3.21D-09
 IDIUse=1 WtCom= 1.00D+00 WtEn= 0.00D+00
 Coeff-Com:  0.182D-04 0.130D-03-0.754D-02-0.179D-01 0.154D+00-0.517D+00
 Coeff-Com:  0.139D+01
 Coeff:      0.182D-04 0.130D-03-0.754D-02-0.179D-01 0.154D+00-0.517D+00
 Coeff:      0.139D+01
 Gap=     0.517 Goal=   None    Shift=    0.000
 RMSDP=5.58D-07 MaxDP=3.13D-06 DE=-1.17D-08 OVMax= 0.00D+00

 Cycle   8  Pass 1  IDiag  1:
 E= -153.016142718206     Delta-E=       -0.000000000098 Rises=F Damp=F
 DIIS: error= 3.26D-07 at cycle   8 NSaved=   8.
 NSaved= 8 IEnMin= 8 EnMin= -153.016142718206     IErMin= 8 ErrMin= 3.26D-07
 ErrMax= 3.26D-07  0.00D+00 EMaxC= 1.00D-01 BMatC= 2.55D-12 BMatP= 4.07D-11
 IDIUse=1 WtCom= 1.00D+00 WtEn= 0.00D+00
 Coeff-Com: -0.823D-05-0.630D-04 0.347D-02 0.867D-02-0.729D-01 0.247D+00
 Coeff-Com: -0.806D+00 0.162D+01
 Coeff:     -0.823D-05-0.630D-04 0.347D-02 0.867D-02-0.729D-01 0.247D+00
 Coeff:     -0.806D+00 0.162D+01
 Gap=     0.517 Goal=   None    Shift=    0.000
 RMSDP=1.73D-07 MaxDP=1.09D-06 DE=-9.81D-11 OVMax= 0.00D+00

 Cycle   9  Pass 1  IDiag  1:
 E= -153.016142718212     Delta-E=       -0.000000000007 Rises=F Damp=F
 DIIS: error= 2.44D-08 at cycle   9 NSaved=   9.
 NSaved= 9 IEnMin= 9 EnMin= -153.016142718212     IErMin= 9 ErrMin= 2.44D-08
 ErrMax= 2.44D-08  0.00D+00 EMaxC= 1.00D-01 BMatC= 2.81D-14 BMatP= 2.55D-12
 IDIUse=1 WtCom= 1.00D+00 WtEn= 0.00D+00
 Coeff-Com:  0.231D-06 0.150D-05-0.975D-04-0.226D-03 0.197D-02-0.706D-02
 Coeff-Com:  0.282D-01-0.106D+00 0.108D+01
 Coeff:      0.231D-06 0.150D-05-0.975D-04-0.226D-03 0.197D-02-0.706D-02
 Coeff:      0.282D-01-0.106D+00 0.108D+01
 Gap=     0.517 Goal=   None    Shift=    0.000
 RMSDP=1.31D-08 MaxDP=9.65D-08 DE=-6.68D-12 OVMax= 0.00D+00

 Cycle  10  Pass 1  IDiag  1:
 E= -153.016142718212     Delta-E=       -0.000000000000 Rises=F Damp=F
 DIIS: error= 8.70D-09 at cycle  10 NSaved=  10.
 NSaved=10 IEnMin=10 EnMin= -153.016142718212     IErMin=10 ErrMin= 8.70D-09
 ErrMax= 8.70D-09  0.00D+00 EMaxC= 1.00D-01 BMatC= 3.17D-15 BMatP= 2.81D-14
 IDIUse=1 WtCom= 1.00D+00 WtEn= 0.00D+00
 Coeff-Com:  0.840D-06 0.641D-05-0.355D-03-0.879D-03 0.743D-02-0.252D-01
 Coeff-Com:  0.829D-01-0.173D+00 0.134D+00 0.975D+00
 Coeff:      0.840D-06 0.641D-05-0.355D-03-0.879D-03 0.743D-02-0.252D-01
 Coeff:      0.829D-01-0.173D+00 0.134D+00 0.975D+00
 Gap=     0.517 Goal=   None    Shift=    0.000
 RMSDP=4.27D-09 MaxDP=3.11D-08 DE=-2.84D-14 OVMax= 0.00D+00

 Error on total polarization charges =  0.00344
 SCF Done:  E(RHF) =  -153.016142718     A.U. after   10 cycles
            NFock= 10  Conv=0.43D-08     -V/T= 2.0066
 KE= 1.520068981011D+02 PE=-5.675870154628D+02 EE= 1.569527209503D+02
 Leave Link  502 at Sat Jan 31 20:59:55 2026, MaxMem=   536870912 cpu:               2.3 elap:               0.6
 (Enter /root/g16/l801.exe)
 Range of M.O.s used for correlation:     1    26
 NBasis=    26 NAE=    15 NBE=    15 NFC=     0 NFV=     0
 NROrb=     26 NOA=    15 NOB=    15 NVA=    11 NVB=    11
 Leave Link  801 at Sat Jan 31 20:59:55 2026, MaxMem=   536870912 cpu:               0.1 elap:               0.1
 (Enter /root/g16/l1101.exe)
 Using compressed storage, NAtomX=    10.
 Will process     11 centers per pass.
 Leave Link 1101 at Sat Jan 31 20:59:55 2026, MaxMem=   536870912 cpu:               0.1 elap:               0.1
 (Enter /root/g16/l1102.exe)
 Symmetrizing basis deriv contribution to polar:
 IMax=3 JMax=2 DiffMx= 0.00D+00
 Leave Link 1102 at Sat Jan 31 20:59:55 2026, MaxMem=   536870912 cpu:               0.1 elap:               0.1
 (Enter /root/g16/l1110.exe)
 Forming Gx(P) for the SCF density, NAtomX=    10.
 Integral derivatives from FoFJK, PRISM(SPDF).
 Do as many integral derivatives as possible in FoFJK.
 G2DrvN: MDV=     536870076.
 G2DrvN: will do    11 centers at a time, making    1 passes.
 Calling FoFCou, ICntrl=  3107 FMM=F I1Cent=   0 AccDes= 0.00D+00.
 FoFJK:  IHMeth= 1 ICntrl=    3107 DoSepK=F KAlg= 0 I1Cent=           0 FoldK=F
 IRaf=         0 NMat=       1 IRICut=       1 DoRegI=T DoRafI=F ISym2E= 0 IDoP0=0 IntGTp=1.
 FoFCou: FMM=F IPFlag=           0 FMFlag=      100000 FMFlg1=           0
         NFxFlg=           0 DoJE=F BraDBF=F KetDBF=F FulRan=T
         wScrn=  0.000000 ICntrl=      3107 IOpCl=  0 I1Cent=           0 NGrid=           0
         NMat0=    1 NMatS0=      1 NMatT0=    0 NMatD0=    1 NMtDS0=    0 NMtDT0=    0
 Symmetry not used in FoFCou.
 NEqPCM:  Using equilibrium solvation (IEInf=0, Eps=  20.4930, EpsInf=   1.8463)
 G2PCM: DoFxE=T DoFxN=T DoGrad=T DoDP/DQ/DG/TGxP=FFFF NFrqRd=   0 IEInf=0 SqF1=F DoCFld=F IF1Alg=4.
 GePol: Maximum number of non-zero 1st derivatives   =     235
 End of G2Drv F.D. properties file   721 does not exist.
 End of G2Drv F.D. properties file   722 does not exist.
 End of G2Drv F.D. properties file   788 does not exist.
 Leave Link 1110 at Sat Jan 31 20:59:56 2026, MaxMem=   536870912 cpu:               2.5 elap:               0.7
 (Enter /root/g16/l1002.exe)
 Minotr:  Closed shell wavefunction.
          IDoAtm=1111111111
 NEqPCM:  Using equilibrium solvation (IEInf=0, Eps=  20.4930, EpsInf=   1.8463)
          Direct CPHF calculation.
          Differentiating once with respect to nuclear coordinates.
          Requested convergence is 1.0D-08 RMS, and 1.0D-07 maximum.
          Secondary convergence is 1.0D-12 RMS, and 1.0D-12 maximum.
          NewPWx=T KeepS1=F KeepF1=F KeepIn=T MapXYZ=F SortEE=F KeepMc=T.
 Keep R1 ints in memory in canonical form, NReq=3400802.
 FoFCou: FMM=F IPFlag=           0 FMFlag=           0 FMFlg1=           0
         NFxFlg=           0 DoJE=F BraDBF=F KetDBF=F FulRan=T
         wScrn=  0.000000 ICntrl=       600 IOpCl=  0 I1Cent=           0 NGrid=           0
         NMat0=    1 NMatS0=    351 NMatT0=    0 NMatD0=    1 NMtDS0=    0 NMtDT0=    0
 Symmetry not used in FoFCou.
 Two-electron integral symmetry not used.
          MDV=     536870912 using IRadAn=       1.
          Solving linear equations simultaneously, MaxMat=       0.
          There are    33 degrees of freedom in the 1st order CPHF.  IDoFFX=6 NUNeed=     0.
     27 vectors produced by pass  0 Test12= 5.00D-16 3.03D-09 XBig12= 3.14D-02 9.98D-02.
 AX will form    27 AO Fock derivatives at one time.
     27 vectors produced by pass  1 Test12= 5.00D-16 3.03D-09 XBig12= 2.82D-04 5.27D-03.
     27 vectors produced by pass  2 Test12= 5.00D-16 3.03D-09 XBig12= 5.71D-07 3.25D-04.
     27 vectors produced by pass  3 Test12= 5.00D-16 3.03D-09 XBig12= 2.36D-09 1.65D-05.
     27 vectors produced by pass  4 Test12= 5.00D-16 3.03D-09 XBig12= 6.34D-12 7.28D-07.
     10 vectors produced by pass  5 Test12= 5.00D-16 3.03D-09 XBig12= 4.19D-15 2.06D-08.
 InvSVY:  IOpt=1 It=  1 EMax= 2.00D-15
 Solved reduced A of dimension   145 with    27 vectors.
 End of Minotr F.D. properties file   721 does not exist.
 End of Minotr F.D. properties file   722 does not exist.
 End of Minotr F.D. properties file   788 does not exist.
 Leave Link 1002 at Sat Jan 31 20:59:56 2026, MaxMem=   536870912 cpu:               0.7 elap:               0.2
 (Enter /root/g16/l601.exe)
 Copying SCF densities to generalized density rwf, IOpCl= 0 IROHF=0.

 **********************************************************************

            Population analysis using the SCF density.

 **********************************************************************

 Orbital symmetries:
       Occupied  (A) (A) (A) (A) (A) (A) (A) (A) (A) (A) (A) (A)
                 (A) (A) (A)
       Virtual   (A) (A) (A) (A) (A) (A) (A) (A) (A) (A) (A)
 The electronic state is 1-A.
 Alpha  occ. eigenvalues --  -11.03142 -11.03129 -11.01796 -11.01792  -1.03864
 Alpha  occ. eigenvalues --   -0.94175  -0.79598  -0.68160  -0.63076  -0.56001
 Alpha  occ. eigenvalues --   -0.54065  -0.46915  -0.44565  -0.39477  -0.27160
 Alpha virt. eigenvalues --    0.24502   0.41579   0.60273   0.63413   0.67806
 Alpha virt. eigenvalues --    0.72650   0.75154   0.86197   0.93432   1.01521
 Alpha virt. eigenvalues --    1.09870
          Condensed to atoms (all electrons):
               1          2          3          4          5          6
     1  C    4.806260   0.596203  -0.026816  -0.004411   0.395049   0.393074
     2  C    0.596203   4.769486   0.411650  -0.026811  -0.025210  -0.025352
     3  C   -0.026816   0.411650   4.769494   0.596194   0.001425  -0.003829
     4  C   -0.004411  -0.026811   0.596194   4.806262   0.000013  -0.000304
     5  H    0.395049  -0.025210   0.001425   0.000013   0.591858  -0.024377
     6  H    0.393074  -0.025352  -0.003829  -0.000304  -0.024377   0.593688
     7  H   -0.028680   0.394055  -0.027770   0.001265  -0.005138   0.002091
     8  H    0.001266  -0.027775   0.394056  -0.028678  -0.000034   0.000021
     9  H    0.000013   0.001425  -0.025208   0.395049   0.000001  -0.000016
    10  H   -0.000303  -0.003828  -0.025350   0.393069  -0.000016  -0.000236
               7          8          9         10
     1  C   -0.028680   0.001266   0.000013  -0.000303
     2  C    0.394055  -0.027775   0.001425  -0.003828
     3  C   -0.027770   0.394056  -0.025208  -0.025350
     4  C    0.001265  -0.028678   0.395049   0.393069
     5  H   -0.005138  -0.000034   0.000001  -0.000016
     6  H    0.002091   0.000021  -0.000016  -0.000236
     7  H    0.604372  -0.004012  -0.000034   0.000021
     8  H   -0.004012   0.604376  -0.005137   0.002091
     9  H   -0.000034  -0.005137   0.591854  -0.024378
    10  H    0.000021   0.002091  -0.024378   0.593695
 Mulliken charges:
               1
     1  C   -0.131656
     2  C   -0.063843
     3  C   -0.063845
     4  C   -0.131650
     5  H    0.066430
     6  H    0.065238
     7  H    0.063830
     8  H    0.063827
     9  H    0.066432
    10  H    0.065235
 Sum of Mulliken charges =  -0.00000
 Mulliken charges with hydrogens summed into heavy atoms:
               1
     1  C    0.000013
     2  C   -0.000013
     3  C   -0.000018
     4  C    0.000017
 APT charges:
               1
     1  C   -0.627396
     2  C   -0.566726
     3  C   -0.566768
     4  C   -0.627373
     5  H    0.529480
     6  H    0.252695
     7  H    0.411959
     8  H    0.411940
     9  H    0.529490
    10  H    0.252698
 Sum of APT charges =   0.00000
 APT charges with hydrogens summed into heavy atoms:
               1
     1  C    0.154779
     2  C   -0.154767
     3  C   -0.154828
     4  C    0.154816
 Electronic spatial extent (au):  <R**2>=            298.5787
 Charge=             -0.0000 electrons
 Dipole moment (field-independent basis, Debye):
    X=              0.0000    Y=              0.0366    Z=             -0.0000  Tot=              0.0366
 Quadrupole moment (field-independent basis, Debye-Ang):
   XX=            -22.4500   YY=            -22.1446   ZZ=            -25.0455
   XY=              0.0001   XZ=             -0.2104   YZ=             -0.0006
 Traceless Quadrupole moment (field-independent basis, Debye-Ang):
   XX=              0.7634   YY=              1.0687   ZZ=             -1.8322
   XY=              0.0001   XZ=             -0.2104   YZ=             -0.0006
 Octapole moment (field-independent basis, Debye-Ang**2):
  XXX=             -0.0002  YYY=              0.2963  ZZZ=              0.0000  XYY=             -0.0001
  XXY=              0.1666  XXZ=             -0.0005  XZZ=              0.0003  YZZ=              0.0441
  YYZ=             -0.0001  XYZ=             -0.4817
 Hexadecapole moment (field-independent basis, Debye-Ang**3):
 XXXX=           -247.4114 YYYY=            -88.3122 ZZZZ=            -21.7213 XXXY=              0.0003
 XXXZ=             -1.7893 YYYX=              0.0004 YYYZ=             -0.0017 ZZZX=             -0.0222
 ZZZY=             -0.0003 XXYY=            -59.6637 XXZZ=            -50.7018 YYZZ=            -19.8503
 XXYZ=             -0.0008 YYXZ=             -0.2464 ZZXY=              0.0001
 N-N= 1.056112536932D+02 E-N=-5.675870154541D+02  KE= 1.520068981011D+02
  Exact polarizability:   0.000   0.000   0.000   0.000   0.000   0.000
 Approx polarizability:  28.692   0.000  26.446   0.051   0.001   4.147
 No NMR shielding tensors so no spin-rotation constants.
 Leave Link  601 at Sat Jan 31 20:59:56 2026, MaxMem=   536870912 cpu:               0.2 elap:               0.1
 (Enter /root/g16/l701.exe)
 ... and contract with generalized density number  0.
 Compute integral second derivatives.
 D2PCM: PCM CHGder 2nd derivatives, FixD1E=F FixD2E=F DoIter=F DoCFld=F I1PDM=0
 GePol: Maximum number of non-zero 2nd derivatives   =     235
 Leave Link  701 at Sat Jan 31 20:59:57 2026, MaxMem=   536870912 cpu:               2.3 elap:               0.6
 (Enter /root/g16/l702.exe)
 L702 exits ... SP integral derivatives will be done elsewhere.
 Leave Link  702 at Sat Jan 31 20:59:57 2026, MaxMem=   536870912 cpu:               0.1 elap:               0.1
 (Enter /root/g16/l703.exe)
 Integral derivatives from FoFJK, PRISM(SPDF).
 Compute integral second derivatives, UseDBF=F ICtDFT=           0.
 Calling FoFJK, ICntrl=    100147 FMM=F ISym2X=0 I1Cent= 0 IOpClX= 0 NMat=1 NMatS=1 NMatT=0.
 FoFJK:  IHMeth= 1 ICntrl=  100147 DoSepK=F KAlg= 0 I1Cent=           0 FoldK=F
 IRaf=         0 NMat=       1 IRICut=       1 DoRegI=T DoRafI=F ISym2E= 0 IDoP0=0 IntGTp=1.
 FoFCou: FMM=F IPFlag=           0 FMFlag=      100000 FMFlg1=         800
         NFxFlg=           0 DoJE=F BraDBF=F KetDBF=F FulRan=T
         wScrn=  0.000000 ICntrl=    100147 IOpCl=  0 I1Cent=           0 NGrid=           0
         NMat0=    1 NMatS0=      1 NMatT0=    0 NMatD0=    1 NMtDS0=    0 NMtDT0=    0
 Symmetry not used in FoFCou.
 Leave Link  703 at Sat Jan 31 20:59:57 2026, MaxMem=   536870912 cpu:               0.3 elap:               0.1
 (Enter /root/g16/l716.exe)
 Dipole        = 1.79632603D-06 1.43869302D-02-5.32172685D-06
 Polarizability= 0.00000000D+00 0.00000000D+00 0.00000000D+00
                 0.00000000D+00 0.00000000D+00 0.00000000D+00
 ***** Axes restored to original set *****
 -------------------------------------------------------------------
 Center     Atomic                   Forces (Hartrees/Bohr)
 Number     Number              X              Y              Z
 -------------------------------------------------------------------
      1        6          -0.015327790   -0.001129605   -0.021184146
      2        6           0.042157671   -0.001827903    0.017617566
      3        6          -0.042186259    0.001780965    0.017634226
      4        6           0.015382274    0.001171214   -0.021194512
      5        1           0.004164609   -0.000587746   -0.000197639
      6        1          -0.000850145    0.000273830    0.004045273
      7        1           0.001576742   -0.000535676   -0.000265664
      8        1          -0.001591654    0.000558319   -0.000276847
      9        1          -0.004169944    0.000578619   -0.000204987
     10        1           0.000844496   -0.000282016    0.004026731
 -------------------------------------------------------------------
 Cartesian Forces:  Max     0.042186259 RMS     0.013702085
 Force constants in Cartesian coordinates: 
                1             2             3             4             5 
      1  0.100505D+01
      2 -0.887970D-01  0.191227D+00
      3  0.131445D+00  0.131028D+00  0.105871D+01
      4 -0.363792D+00 -0.744433D-02 -0.259058D+00  0.935686D+00
      5 -0.796400D-02 -0.856198D-01 -0.394586D-01 -0.726967D-01  0.204409D+00
      6 -0.279218D+00 -0.397836D-01 -0.547882D+00  0.134168D+00  0.104984D+00
      7 -0.409588D-01  0.495362D-02 -0.225381D-01 -0.381286D+00  0.433416D-01
      8 -0.603869D-03  0.920592D-02  0.217668D-02  0.432933D-01 -0.840066D-01
      9 -0.322410D-01  0.487300D-02  0.161698D-01 -0.242277D-01  0.350737D-02
     10  0.465380D-02 -0.533992D-03  0.808117D-02 -0.409570D-01 -0.594096D-03
     11 -0.538397D-03 -0.288930D-05 -0.623829D-03  0.496717D-02  0.919792D-02
     12 -0.807914D-02  0.620406D-03 -0.721994D-02  0.225338D-01 -0.216451D-02
     13 -0.478224D+00  0.610874D-01  0.342433D-01 -0.113593D-01  0.395164D-02
     14  0.614588D-01 -0.558450D-01 -0.105759D-01 -0.419739D-02  0.899215D-02
     15  0.381310D-01 -0.110867D-01 -0.839395D-01 -0.379645D-01  0.444541D-02
     16 -0.136288D+00  0.347621D-01  0.135136D+00  0.176890D-01 -0.607366D-02
     17  0.338790D-01 -0.679039D-01 -0.810621D-01  0.326487D-02  0.675324D-02
     18  0.132217D+00 -0.794275D-01 -0.416753D+00  0.156843D-01 -0.592425D-02
     19  0.146980D-01 -0.557636D-02 -0.310428D-01 -0.143200D+00  0.324473D-01
     20  0.724851D-03  0.794246D-02 -0.212585D-02  0.338852D-01 -0.698255D-01
     21  0.178189D-01 -0.622480D-02 -0.195142D-01  0.140730D+00 -0.646089D-01
     22 -0.530226D-02  0.171396D-02  0.304960D-02 -0.136094D-01  0.689908D-02
     23  0.146779D-02  0.133986D-02  0.643275D-03 -0.129231D-02  0.468632D-02
     24  0.121328D-02  0.366632D-03  0.295262D-03  0.800521D-02 -0.158782D-02
     25  0.119549D-02 -0.955294D-04 -0.159783D-03 -0.339474D-03  0.216779D-02
     26  0.755772D-03 -0.940542D-03 -0.449648D-03  0.294547D-02  0.156692D-01
     27 -0.149257D-03 -0.341329D-03 -0.478659D-03  0.141370D-02  0.302683D-02
     28 -0.103550D-02 -0.699334D-04  0.844101D-03  0.116771D-02 -0.147892D-02
     29 -0.382940D-03  0.596523D-03  0.448183D-03 -0.272528D-02 -0.102557D-01
     30 -0.113709D-02 -0.238958D-04  0.614042D-03 -0.128512D-02 -0.221949D-02
                6             7             8             9            10 
      6  0.106794D+01
      7  0.242083D-01  0.935671D+00
      8 -0.357114D-02 -0.726846D-01  0.204213D+00
      9 -0.135751D+00 -0.134002D+00 -0.104275D+00  0.106808D+01
     10  0.322326D-01 -0.363759D+00 -0.782439D-02  0.279150D+00  0.100506D+01
     11 -0.486643D-02 -0.731479D-02 -0.855695D-01  0.394979D-01 -0.887232D-01
     12  0.161751D-01  0.258988D+00  0.391693D-01 -0.547847D+00 -0.131289D+00
     13  0.102375D-01 -0.338853D-03  0.216907D-02 -0.408533D-02  0.119582D-02
     14 -0.236671D-03  0.294261D-02  0.156630D-01 -0.414076D-02  0.755189D-03
     15  0.794739D-02 -0.141591D-02 -0.304046D-02 -0.407967D-02  0.148628D-03
     16 -0.284200D-01  0.116675D-02 -0.148143D-02  0.225097D-02 -0.103562D-02
     17  0.439234D-03 -0.272306D-02 -0.102517D-01  0.205493D-02 -0.381789D-03
     18 -0.166770D-01  0.128794D-02  0.223112D-02  0.745122D-04  0.113787D-02
     19  0.142801D+00 -0.136071D-01  0.693690D-02  0.378321D-01 -0.529956D-02
     20 -0.622886D-01 -0.130564D-02  0.468265D-02 -0.324026D-02  0.146702D-02
     21 -0.393138D+00 -0.800231D-02  0.158824D-02  0.538859D-02 -0.121440D-02
     22 -0.378420D-01 -0.143217D+00  0.322956D-01 -0.142864D+00  0.146990D-01
     23  0.323895D-02  0.337292D-01 -0.696765D-01  0.619180D-01  0.709379D-03
     24  0.538781D-02 -0.140800D+00  0.642711D-01 -0.393302D+00 -0.178216D-01
     25  0.408259D-02 -0.113585D-01  0.394599D-02 -0.102386D-01 -0.478254D+00
     26  0.413080D-02 -0.418938D-02  0.898628D-02  0.238821D-03  0.613915D-01
     27 -0.408377D-02  0.379635D-01 -0.444069D-02  0.795070D-02 -0.381696D-01
     28 -0.224950D-02  0.176886D-01 -0.604652D-02  0.284262D-01 -0.136305D+00
     29 -0.204642D-02  0.325051D-02  0.675360D-02 -0.433989D-03  0.337343D-01
     30  0.788341D-04 -0.156894D-01  0.589097D-02 -0.166790D-01 -0.132255D+00
               11            12            13            14            15 
     11  0.190971D+00
     12 -0.130301D+00  0.105881D+01
     13 -0.951170D-04  0.159914D-03  0.489764D+00
     14 -0.939965D-03  0.448769D-03 -0.642888D-01  0.406910D-01
     15  0.341300D-03 -0.479170D-03 -0.323364D-01  0.110907D-01  0.724870D-01
     16 -0.704171D-04 -0.844144D-03 -0.217408D-02  0.619663D-02  0.339426D-01
     17  0.596517D-03 -0.447850D-03 -0.743420D-03  0.331293D-02 -0.411175D-02
     18  0.239127D-04  0.614410D-03 -0.866317D-02  0.140894D-02  0.532650D-02
     19  0.171146D-02 -0.305158D-02  0.177365D-02 -0.164528D-02  0.737236D-03
     20  0.133866D-02 -0.644392D-03 -0.179454D-02 -0.113325D-01  0.215068D-02
     21 -0.368047D-03  0.296139D-03  0.551386D-04  0.183918D-02  0.213969D-02
     22 -0.554805D-02  0.310490D-01 -0.516882D-03 -0.119170D-02 -0.120699D-02
     23  0.794474D-02  0.212627D-02 -0.111136D-03 -0.173752D-03  0.224441D-03
     24  0.618875D-02 -0.195187D-01  0.251797D-03  0.174270D-03  0.218076D-03
     25  0.609973D-01 -0.342904D-01 -0.403023D-03 -0.156290D-03  0.146455D-03
     26 -0.558039D-01  0.105371D-01 -0.157111D-03 -0.887026D-03  0.184054D-03
     27  0.110541D-01 -0.839540D-01 -0.146469D-03 -0.183307D-03  0.362948D-03
     28  0.346140D-01 -0.135176D+00  0.283229D-03  0.126207D-03 -0.182113D-03
     29 -0.677325D-01  0.806555D-01 -0.180085D-04  0.519107D-03 -0.197674D-03
     30  0.790530D-01 -0.416873D+00  0.283750D-03  0.174803D-03  0.167179D-04
               16            17            18            19            20 
     16  0.125427D+00
     17 -0.353476D-01  0.498400D-01
     18 -0.138792D+00  0.850292D-01  0.428748D+00
     19 -0.318236D-02  0.203269D-02 -0.324860D-02  0.146566D+00
     20  0.215960D-02  0.170369D-01 -0.298717D-02 -0.343289D-01  0.507780D-01
     21 -0.306116D-02 -0.225061D-02 -0.229034D-02 -0.145522D+00  0.697643D-01
     22  0.118943D-03  0.357070D-03  0.221588D-03  0.264897D-02 -0.743788D-03
     23  0.476786D-04  0.748542D-04 -0.686993D-04 -0.743045D-03 -0.521771D-03
     24  0.451705D-04  0.408056D-04  0.201827D-03  0.509029D-03 -0.473362D-03
     25  0.283237D-03 -0.183145D-04 -0.283839D-03 -0.516424D-03 -0.111430D-03
     26  0.126696D-03  0.518849D-03 -0.175665D-03 -0.119207D-02 -0.173829D-03
     27  0.182092D-03  0.197640D-03  0.165167D-04  0.120737D-02 -0.224185D-03
     28 -0.200411D-02 -0.319395D-03  0.439478D-03  0.118829D-03  0.476162D-04
     29 -0.319604D-03  0.222825D-04 -0.109901D-03  0.357268D-03  0.747645D-04
     30 -0.439039D-03  0.110498D-03  0.737953D-03 -0.221967D-03  0.688425D-04
               21            22            23            24            25 
     21  0.405429D+00
     22 -0.508220D-03  0.146589D+00
     23  0.475592D-03 -0.341688D-01  0.506199D-01
     24  0.126942D-02  0.145592D+00 -0.693902D-01  0.405600D+00
     25 -0.251622D-03  0.177422D-02 -0.179366D-02 -0.527960D-04  0.489795D+00
     26 -0.174354D-03 -0.164161D-02 -0.113369D-01 -0.182564D-02 -0.642017D-01
     27  0.218306D-03 -0.735901D-03 -0.213998D-02  0.214337D-02  0.323840D-01
     28 -0.451811D-04 -0.318409D-02  0.215498D-02  0.305846D-02 -0.217576D-02
     29 -0.406605D-04  0.202832D-02  0.170432D-01  0.223554D-02 -0.734192D-03
     30  0.201698D-03  0.324584D-02  0.297233D-02 -0.229454D-02  0.866394D-02
               26            27            28            29            30 
     26  0.406512D-01
     27 -0.110586D-01  0.725006D-01
     28  0.616238D-02 -0.339494D-01  0.125447D+00
     29  0.331660D-02  0.410959D-02 -0.351904D-01  0.496621D-01
     30 -0.140686D-02  0.532408D-02  0.138834D+00 -0.846202D-01  0.428874D+00
 FormGI is forming the generalized inverse of G from B-inverse, IUseBI=4.
 Force constants in internal coordinates: 
                1             2             3             4             5 
      1  0.817791D+00
      2 -0.180613D-02  0.501408D+00
      3 -0.164836D-02 -0.659932D-02  0.501422D+00
      4  0.336514D-01 -0.625389D-04 -0.237315D-02  0.500966D+00
      5 -0.105291D-02  0.116225D-02  0.753125D-03 -0.232063D-02  0.484666D+00
      6 -0.144790D-01 -0.373222D-03  0.915303D-04  0.336476D-01 -0.391917D-03
      7 -0.391301D-03 -0.102556D-03 -0.264516D-03 -0.231966D-02 -0.119021D-04
      8 -0.373083D-03  0.386776D-03  0.344240D-03 -0.622976D-04 -0.102686D-03
      9  0.918681D-04  0.344187D-03  0.114534D-02 -0.237296D-02 -0.264483D-03
     10  0.136212D-01  0.366820D-02 -0.982044D-02  0.271815D-02 -0.362666D-02
     11  0.110187D-01 -0.104450D-01  0.239291D-02 -0.128372D-02  0.333214D-02
     12 -0.246298D-01  0.677657D-02  0.742893D-02 -0.144739D-02  0.295321D-03
     13  0.177360D-01  0.410738D-02 -0.903335D-02  0.308156D-01 -0.112417D-01
     14  0.119451D-01 -0.370406D-02  0.649498D-02 -0.358740D-01  0.552574D-02
     15 -0.296720D-01 -0.401499D-03  0.254110D-02  0.505177D-02  0.571320D-02
     16 -0.330131D-02 -0.183396D-02 -0.505226D-02  0.308119D-01  0.364618D-02
     17  0.398459D-02  0.123506D-02  0.237917D-02  0.505699D-02 -0.376406D-02
     18 -0.682462D-03  0.597416D-03  0.267601D-02 -0.358754D-01  0.115205D-03
     19 -0.829936D-03 -0.235626D-04  0.498631D-03  0.271682D-02  0.605532D-03
     20  0.125676D-02 -0.158307D-03 -0.908702D-03 -0.128202D-02 -0.473757D-03
     21 -0.429064D-03  0.180884D-03  0.411286D-03 -0.144724D-02 -0.132631D-03
     22 -0.220874D-03  0.875831D-05 -0.110401D-05 -0.620404D-03  0.159021D-03
     23  0.100319D-04  0.111632D-03  0.211975D-03 -0.103519D-02  0.662145D-04
     24  0.579284D-03  0.368002D-04  0.187107D-03 -0.187792D-02  0.238683D-03
     25  0.810190D-03  0.139674D-03  0.400186D-03 -0.229271D-02  0.145877D-03
     26 -0.114338D-02  0.742183D-04  0.679758D-03 -0.126986D-02  0.337398D-03
     27 -0.119266D-02  0.149532D-03  0.468156D-03 -0.435135D-03  0.502221D-03
     28 -0.176860D-02  0.120540D-04  0.426503D-03 -0.430504D-03  0.418529D-03
     29 -0.181788D-02  0.873677D-04  0.214901D-03  0.404217D-03  0.583352D-03
     30 -0.868971D-04  0.137561D-03  0.227325D-04 -0.630877D-03  0.303677D-03
     31 -0.314668D-03  0.399947D-04  0.147449D-03 -0.188811D-02  0.216958D-03
     32  0.114313D-04  0.644900D-04  0.234254D-03 -0.102546D-02  0.942611D-04
     33 -0.216340D-03 -0.330765D-04  0.358971D-03 -0.228269D-02  0.754234D-05
                6             7             8             9            10 
      6  0.817648D+00
      7 -0.105327D-02  0.484713D+00
      8 -0.180670D-02  0.116246D-02  0.501420D+00
      9 -0.164810D-02  0.753223D-03 -0.659890D-02  0.501378D+00
     10 -0.829868D-03  0.605615D-03 -0.236198D-04  0.498545D-03  0.106421D+00
     11  0.125663D-02 -0.473848D-03 -0.158251D-03 -0.908538D-03 -0.576652D-01
     12 -0.429089D-03 -0.132658D-03  0.180850D-03  0.411265D-03 -0.487490D-01
     13 -0.329559D-02  0.364697D-02 -0.183314D-02 -0.505210D-02  0.110069D-01
     14 -0.682447D-03  0.114841D-03  0.597431D-03  0.267583D-02 -0.113952D-01
     15  0.397887D-02 -0.376441D-02  0.123429D-02  0.237912D-02  0.391629D-03
     16  0.177322D-01 -0.112418D-01  0.410698D-02 -0.903317D-02 -0.542556D-02
     17 -0.296676D-01  0.571380D-02 -0.401631D-03  0.254088D-02  0.472003D-02
     18  0.119452D-01  0.552518D-02 -0.370343D-02  0.649509D-02  0.711489D-03
     19  0.136192D-01 -0.362627D-02  0.366756D-02 -0.982027D-02  0.965216D-03
     20  0.110180D-01  0.333185D-02 -0.104444D-01  0.239212D-02 -0.130177D-02
     21 -0.246278D-01  0.295170D-03  0.677663D-02  0.742946D-02  0.339192D-03
     22 -0.884051D-04  0.303217D-03  0.136969D-03  0.220746D-04 -0.119877D-03
     23  0.106803D-04  0.945852D-04  0.641940D-04  0.234368D-03  0.741882D-04
     24 -0.315595D-03  0.216520D-03  0.400052D-04  0.147569D-03  0.152355D-03
     25 -0.216509D-03  0.788846D-05 -0.327703D-04  0.359862D-03  0.346420D-03
     26 -0.113056D-02  0.338480D-03  0.749603D-04  0.681126D-03  0.662629D-03
     27 -0.178004D-02  0.416985D-03  0.119302D-04  0.425686D-03  0.292794D-03
     28 -0.118210D-02  0.503750D-03  0.149827D-03  0.469033D-03  0.604226D-03
     29 -0.183158D-02  0.582256D-03  0.867966D-04  0.213593D-03  0.234391D-03
     30 -0.211941D-03  0.158903D-03  0.986227D-05  0.000000D+00 -0.289723D-03
     31  0.556787D-03  0.235993D-03  0.333073D-04  0.183837D-03 -0.231685D-04
     32  0.301989D-04  0.685305D-04  0.114921D-03  0.214378D-03  0.132154D-03
     33  0.798927D-03  0.145620D-03  0.138365D-03  0.397509D-03  0.398709D-03
               11            12            13            14            15 
     11  0.107268D+00
     12 -0.495946D-01  0.983350D-01
     13 -0.715151D-02 -0.387070D-02  0.158994D+00
     14  0.120851D-01 -0.682273D-03 -0.783172D-01  0.124374D+00
     15 -0.493842D-02  0.455518D-02 -0.806804D-01 -0.460563D-01  0.126744D+00
     16  0.770548D-02 -0.228580D-02  0.162145D-01 -0.168624D-01  0.640996D-03
     17 -0.495916D-02  0.235667D-03  0.645655D-03  0.576822D-02 -0.641976D-02
     18 -0.275400D-02  0.205191D-02 -0.168672D-01  0.111075D-01  0.577263D-02
     19 -0.130181D-02  0.339339D-03 -0.542719D-02  0.712088D-03  0.472088D-02
     20  0.258082D-02 -0.128495D-02  0.770802D-02 -0.275480D-02 -0.496068D-02
     21 -0.128468D-02  0.948644D-03 -0.228645D-02  0.205174D-02  0.236442D-03
     22 -0.300734D-03  0.110081D-03  0.621024D-05  0.697698D-03 -0.877004D-03
     23 -0.640441D-03  0.303080D-03 -0.130478D-02  0.384640D-03  0.103574D-02
     24  0.112693D-03 -0.399977D-05 -0.149079D-02  0.142619D-02 -0.359588D-04
     25 -0.227014D-03  0.188999D-03 -0.280178D-02  0.111313D-02  0.187678D-02
     26 -0.123223D-02  0.592484D-03 -0.401724D-02  0.279269D-02  0.136324D-02
     27 -0.734457D-03  0.461134D-03 -0.339018D-02  0.185790D-02  0.166402D-02
     28 -0.108271D-02  0.455740D-03 -0.263408D-02  0.130840D-02  0.118629D-02
     29 -0.584943D-03  0.324390D-03 -0.200701D-02  0.373612D-03  0.148707D-02
     30  0.245202D-03  0.397873D-04 -0.209763D-02 -0.182227D-03  0.226055D-02
     31 -0.332302D-03  0.349999D-03 -0.267693D-02  0.737151D-03  0.192575D-02
     32 -0.287781D-03  0.154296D-03 -0.254369D-02  0.714022D-03  0.181735D-02
     33 -0.865286D-03  0.464508D-03 -0.312299D-02  0.163340D-02  0.148255D-02
               16            17            18            19            20 
     16  0.158987D+00
     17 -0.806794D-01  0.126748D+00
     18 -0.783095D-01 -0.460613D-01  0.124371D+00
     19  0.110057D-01  0.392676D-03 -0.113949D-01  0.106415D+00
     20 -0.715024D-02 -0.493890D-02  0.120842D-01 -0.576621D-01  0.107265D+00
     21 -0.387011D-02  0.455433D-02 -0.681968D-03 -0.487472D-01 -0.495956D-01
     22 -0.209209D-02  0.225571D-02 -0.183588D-03 -0.289274D-03  0.244860D-03
     23 -0.254633D-02  0.181779D-02  0.715795D-03  0.131969D-03 -0.288096D-03
     24 -0.267528D-02  0.192406D-02  0.736699D-03 -0.226179D-04 -0.333096D-03
     25 -0.312952D-02  0.148615D-02  0.163608D-02  0.398625D-03 -0.866052D-03
     26 -0.401078D-02  0.134852D-02  0.280557D-02  0.661355D-03 -0.123086D-02
     27 -0.264370D-02  0.120410D-02  0.129552D-02  0.605706D-03 -0.108449D-02
     28 -0.338233D-02  0.164837D-02  0.187011D-02  0.290935D-03 -0.732604D-03
     29 -0.201525D-02  0.150395D-02  0.360055D-03  0.235286D-03 -0.586229D-03
     30 -0.129489D-04 -0.889322D-03  0.723365D-03 -0.108429D-03 -0.295252D-03
     31 -0.150813D-02 -0.454633D-04  0.144966D-02  0.149808D-03  0.994888D-04
     32 -0.130302D-02  0.104773D-02  0.374757D-03  0.872791D-04 -0.637904D-03
     33 -0.279820D-02  0.189159D-02  0.110105D-02  0.345516D-03 -0.243163D-03
               21            22            23            24            25 
     21  0.983350D-01
     22  0.398674D-04  0.309592D-01
     23  0.154851D-03  0.200916D-01  0.273561D-01
     24  0.350459D-03  0.105908D-02 -0.524713D-02  0.261954D-01
     25  0.465442D-03 -0.980858D-02  0.201737D-02  0.198892D-01  0.317151D-01
     26  0.591492D-03 -0.580468D-02  0.291651D-02 -0.359643D-02  0.512476D-02
     27  0.456933D-03 -0.464059D-02  0.364735D-02 -0.276236D-02  0.552558D-02
     28  0.460374D-03  0.465003D-02 -0.407718D-02  0.246329D-02 -0.626392D-02
     29  0.325815D-03  0.581412D-02 -0.334634D-02  0.329736D-02 -0.586310D-02
     30  0.105436D-03  0.180253D-02  0.618347D-03  0.134700D-02  0.162816D-03
     31  0.141979D-05  0.134700D-02  0.491500D-03  0.822635D-03 -0.328651D-04
     32  0.297871D-03  0.618553D-03 -0.130816D-03  0.491491D-03 -0.257878D-03
     33  0.193855D-03  0.163022D-03 -0.257663D-03 -0.328739D-04 -0.453559D-03
               26            27            28            29            30 
     26  0.884228D-02
     27  0.422690D-03  0.882709D-02
     28  0.421750D-03 -0.756743D-02  0.882646D-02
     29 -0.799785D-02  0.836973D-03  0.837282D-03  0.967210D-02
     30 -0.580393D-02  0.464973D-02 -0.464033D-02  0.581333D-02  0.309575D-01
     31 -0.359581D-02  0.246280D-02 -0.276203D-02  0.329658D-02  0.105997D-02
     32  0.291568D-02 -0.407729D-02  0.364647D-02 -0.334650D-02  0.200896D-01
     33  0.512380D-02 -0.626422D-02  0.552477D-02 -0.586325D-02 -0.980797D-02
               31            32            33 
     31  0.261936D-01
     32 -0.524626D-02  0.273540D-01
     33  0.198874D-01  0.201819D-02  0.317136D-01
 Leave Link  716 at Sat Jan 31 20:59:57 2026, MaxMem=   536870912 cpu:               0.2 elap:               0.1
 (Enter /root/g16/l103.exe)

 GradGradGradGradGradGradGradGradGradGradGradGradGradGradGradGradGradGrad
 Berny optimization.
 Red2BG is reusing G-inverse.
 Internal  Forces:  Max     0.031947316 RMS     0.007787447
 Search for a local minimum.
 Step number   1 out of a maximum of   43
 All quantities printed in internal units (Hartrees-Bohrs-Radians)
 RMS Force = .77874D-02 SwitMx=.10000D-02 MixMth= 1
 Mixed Optimization -- RFO/linear search
 Second derivative matrix not updated -- analytic derivatives used.
 ITU=  0
     Eigenvalues ---    0.00194   0.03136   0.03358   0.04234   0.04423
     Eigenvalues ---    0.05672   0.05719   0.13977   0.14500   0.14609
     Eigenvalues ---    0.14736   0.18048   0.18100   0.22482   0.25163
     Eigenvalues ---    0.48394   0.48583   0.49434   0.49563   0.50510
     Eigenvalues ---    0.50851   0.51724   0.81387   0.83632
 RFO step:  Lambda=-3.63453111D-03 EMin= 1.93698426D-03
 Linear search not attempted -- first point.
 Iteration  1 RMS(Cart)=  0.02810592 RMS(Int)=  0.00032038
 Iteration  2 RMS(Cart)=  0.00048410 RMS(Int)=  0.00000785
 Iteration  3 RMS(Cart)=  0.00000013 RMS(Int)=  0.00000785
 ITry= 1 IFail=0 DXMaxC= 7.68D-02 DCOld= 1.00D+10 DXMaxT= 3.00D-01 DXLimC= 3.00D+00 Rises=F
 Variable       Old X    -DE/DX   Delta X   Delta X   Delta X     New X
                                 (Linear)    (Quad)   (Total)
    R1        2.51047  -0.02112   0.00000  -0.02929  -0.02929   2.48118
    R2        2.03476   0.00421   0.00000   0.00861   0.00861   2.04336
    R3        2.03484   0.00405   0.00000   0.00829   0.00829   2.04313
    R4        2.75129   0.03195   0.00000   0.06795   0.06795   2.81924
    R5        2.04752   0.00097   0.00000   0.00200   0.00200   2.04952
    R6        2.51053  -0.02118   0.00000  -0.02935  -0.02935   2.48117
    R7        2.04749   0.00099   0.00000   0.00204   0.00204   2.04952
    R8        2.03475   0.00421   0.00000   0.00862   0.00862   2.04336
    R9        2.03487   0.00404   0.00000   0.00826   0.00826   2.04313
    A1        2.12206  -0.00031   0.00000  -0.00013  -0.00014   2.12192
    A2        2.13154   0.00086   0.00000   0.00912   0.00911   2.14065
    A3        2.02952  -0.00055   0.00000  -0.00890  -0.00891   2.02061
    A4        2.19754   0.00123   0.00000   0.00100   0.00099   2.19853
    A5        2.07919  -0.00199   0.00000   0.00216   0.00215   2.08134
    A6        2.00630   0.00076   0.00000  -0.00302  -0.00303   2.00327
    A7        2.19758   0.00121   0.00000   0.00096   0.00094   2.19853
    A8        2.00623   0.00078   0.00000  -0.00295  -0.00296   2.00327
    A9        2.07920  -0.00199   0.00000   0.00215   0.00214   2.08134
   A10        2.12208  -0.00032   0.00000  -0.00015  -0.00016   2.12192
   A11        2.13154   0.00086   0.00000   0.00912   0.00911   2.14065
   A12        2.02950  -0.00054   0.00000  -0.00889  -0.00890   2.02061
    D1       -3.14018  -0.00018   0.00000  -0.00152  -0.00153   3.14147
    D2       -0.01902   0.00014   0.00000   0.00774   0.00775  -0.01127
    D3       -0.01150   0.00028   0.00000   0.00714   0.00713  -0.00436
    D4        3.10967   0.00060   0.00000   0.01640   0.01641   3.12608
    D5       -0.31164   0.00052   0.00000   0.04522   0.04521  -0.26643
    D6        2.85030   0.00023   0.00000   0.03566   0.03566   2.88596
    D7        2.84964   0.00025   0.00000   0.03624   0.03624   2.88588
    D8       -0.27162  -0.00005   0.00000   0.02668   0.02670  -0.24492
    D9       -3.14000  -0.00018   0.00000  -0.00167  -0.00167   3.14151
   D10       -0.01081   0.00025   0.00000   0.00652   0.00651  -0.00429
   D11       -0.01952   0.00016   0.00000   0.00820   0.00821  -0.01131
   D12        3.10967   0.00059   0.00000   0.01639   0.01640   3.12607
         Item               Value     Threshold  Converged?
 Maximum Force            0.031947     0.000450     NO 
 RMS     Force            0.007787     0.000300     NO 
 Maximum Displacement     0.076783     0.001800     NO 
 RMS     Displacement     0.028215     0.001200     NO 
 Predicted change in Energy=-1.841053D-03
 Lowest energy point so far.  Saving SCF results.
 GradGradGradGradGradGradGradGradGradGradGradGradGradGradGradGradGradGrad

 Leave Link  103 at Sat Jan 31 20:59:57 2026, MaxMem=   536870912 cpu:               0.1 elap:               0.1
 (Enter /root/g16/l202.exe)
                          Input orientation:                          
 ---------------------------------------------------------------------
 Center     Atomic      Atomic             Coordinates (Angstroms)
 Number     Number       Type             X           Y           Z
 ---------------------------------------------------------------------
      1          6           0        1.523186   -0.036354    0.508999
      2          6           0        0.740853   -0.087124   -0.544235
      3          6           0       -0.740869    0.086656   -0.544283
      4          6           0       -1.523174    0.036706    0.509009
      5          1           0        2.592683   -0.172998    0.427029
      6          1           0        1.147721    0.146667    1.506232
      7          1           0        1.178292   -0.259958   -1.521501
      8          1           0       -1.178341    0.258653   -1.521681
      9          1           0       -2.592677    0.173251    0.426955
     10          1           0       -1.147677   -0.145475    1.506384
 ---------------------------------------------------------------------
                    Distance matrix (angstroms):
                    1          2          3          4          5
     1  C    0.000000
     2  C    1.312983   0.000000
     3  C    2.500097   1.491879   0.000000
     4  C    3.047237   2.500095   1.312981   0.000000
     5  H    1.081302   2.092845   3.481873   4.122011   0.000000
     6  H    1.081178   2.103477   2.788367   2.853108   1.831606
     7  H    2.071686   1.084561   2.181347   3.392476   2.409322
     8  H    3.392483   2.181346   1.084560   2.071683   4.266663
     9  H    4.122013   3.481871   2.092843   1.081302   5.196907
    10  H    2.853102   2.788367   2.103476   1.081178   3.893078
                    6          7          8          9         10
     6  H    0.000000
     7  H    3.055069   0.000000
     8  H    3.819865   2.413022   0.000000
     9  H    3.893086   4.266656   2.409320   0.000000
    10  H    2.313914   3.819859   3.055068   1.831605   0.000000
 Stoichiometry    C4H6
 Framework group  C1[X(C4H6)]
 Deg. of freedom    24
 Full point group                 C1      NOp   1
 RotChk:  IX=2 Diff= 1.87D-03
 Largest Abelian subgroup         C1      NOp   1
 Largest concise Abelian subgroup C1      NOp   1
                         Standard orientation:                         
 ---------------------------------------------------------------------
 Center     Atomic      Atomic             Coordinates (Angstroms)
 Number     Number       Type             X           Y           Z
 ---------------------------------------------------------------------
      1          6           0        1.523134   -0.495658    0.038439
      2          6           0        0.744238    0.557606   -0.050332
      3          6           0       -0.744240    0.557603    0.050348
      4          6           0       -1.523132   -0.495659   -0.038448
      5          1           0        2.598057   -0.413646   -0.045396
      6          1           0        1.139127   -1.492960    0.202368
      7          1           0        1.189642    1.534936   -0.201045
      8          1           0       -1.189650    1.534937    0.201009
      9          1           0       -2.598058   -0.413648    0.045354
     10          1           0       -1.139120   -1.492966   -0.202337
 ---------------------------------------------------------------------
 Rotational constants (GHZ):          21.7848650           5.7227917           4.5537401
 Leave Link  202 at Sat Jan 31 20:59:57 2026, MaxMem=   536870912 cpu:               0.0 elap:               0.0
 (Enter /root/g16/l301.exe)
 Standard basis: STO-3G (5D, 7F)
 Ernie: Thresh=  0.10000D-02 Tol=  0.10000D-05 Strict=F.
 There are    26 symmetry adapted cartesian basis functions of A   symmetry.
 There are    26 symmetry adapted basis functions of A   symmetry.
    26 basis functions,    78 primitive gaussians,    26 cartesian basis functions
    15 alpha electrons       15 beta electrons
       nuclear repulsion energy       105.3592119001 Hartrees.
 IExCor=    0 DFT=F Ex=HF Corr=None ExCW=0 ScaHFX=  1.000000
 ScaDFX=  1.000000  1.000000  1.000000  1.000000 ScalE2=  1.000000  1.000000
 IRadAn=      5 IRanWt=     -1 IRanGd=            0 ICorTp=0 IEmpDi=  4
 NAtoms=   10 NActive=   10 NUniq=   10 SFac= 1.00D+00 NAtFMM=   60 NAOKFM=F Big=F
 Integral buffers will be    131072 words long.
 Raffenetti 1 integral format.
 Two-electron integral symmetry is turned on.
 ------------------------------------------------------------------------------
 Polarizable Continuum Model (PCM)
 =================================
 Model                : PCM.
 Atomic radii         : UFF (Universal Force Field).
 Polarization charges : Total charges.
 Charge compensation  : None.
 Solution method      : Matrix inversion.
 Cavity type          : Scaled VdW (van der Waals Surface) (Alpha=1.100).
 Cavity algorithm     : GePol (No added spheres)
                        Default sphere list used, NSphG=   10.
                        Lebedev-Laikov grids with approx.  5.0 points / Ang**2.
                        Smoothing algorithm: York/Karplus (Gamma=1.0000).
                        Polarization charges: spherical gaussians, with
                                              point-specific exponents (IZeta= 3).
                        Self-potential: point-specific (ISelfS= 7).
                        Self-field    : sphere-specific E.n sum rule (ISelfD= 2).
 1st derivatives      : Analytical E(r).r(x)/FMM algorithm (CHGder, D1EAlg=3).
                        Cavity 1st derivative terms included.
 Solvent              : Acetone, Eps=  20.493000 Eps(inf)=   1.846337
 ------------------------------------------------------------------------------
 Spheres list:
 ISph  on   Nord     Re0    Alpha      Xe            Ye            Ze
    1   C      1    1.9255  1.100      1.523134     -0.495658      0.038439
    2   C      2    1.9255  1.100      0.744238      0.557606     -0.050332
    3   C      3    1.9255  1.100     -0.744240      0.557603      0.050348
    4   C      4    1.9255  1.100     -1.523132     -0.495659     -0.038448
    5   H      5    1.4430  1.100      2.598057     -0.413646     -0.045396
    6   H      6    1.4430  1.100      1.139127     -1.492960      0.202368
    7   H      7    1.4430  1.100      1.189642      1.534936     -0.201045
    8   H      8    1.4430  1.100     -1.189650      1.534937      0.201009
    9   H      9    1.4430  1.100     -2.598058     -0.413648      0.045354
   10   H     10    1.4430  1.100     -1.139120     -1.492966     -0.202337
 ------------------------------------------------------------------------------
 GePol: Number of generator spheres                  =      10
 GePol: Total number of spheres                      =      10
 GePol: Number of exposed spheres                    =      10 (100.00%)
 GePol: Number of points                             =     918
 GePol: Average weight of points                     =       0.14
 GePol: Minimum weight of points                     =   0.48D-07
 GePol: Maximum weight of points                     =    0.20577
 GePol: Number of points with low weight             =      54
 GePol: Fraction of low-weight points (<1% of avg)   =       5.88%
 GePol: Cavity surface area                          =    125.808 Ang**2
 GePol: Cavity volume                                =    111.251 Ang**3
 Leave Link  301 at Sat Jan 31 20:59:58 2026, MaxMem=   536870912 cpu:               0.1 elap:               0.0
 (Enter /root/g16/l302.exe)
 NPDir=0 NMtPBC=     1 NCelOv=     1 NCel=       1 NClECP=     1 NCelD=      1
         NCelK=      1 NCelE2=     1 NClLst=     1 CellRange=     0.0.
 One-electron integrals computed using PRISM.
 One-electron integral symmetry used in STVInt
 NBasis=    26 RedAO= T EigKep=  1.74D-01  NBF=    26
 NBsUse=    26 1.00D-06 EigRej= -1.00D+00 NBFU=    26
 Leave Link  302 at Sat Jan 31 20:59:58 2026, MaxMem=   536870912 cpu:               0.2 elap:               0.0
 (Enter /root/g16/l303.exe)
 DipDrv:  MaxL=1.
 Leave Link  303 at Sat Jan 31 20:59:58 2026, MaxMem=   536870912 cpu:               0.1 elap:               0.0
 (Enter /root/g16/l401.exe)
 Initial guess from the checkpoint file:  "conf_001.chk"
 B after Tr=     0.000000    0.000000   -0.000000
         Rot=    1.000000   -0.000001    0.000251   -0.000007 Ang=  -0.03 deg.
 Guess basis will be translated and rotated to current coordinates.
 JPrj=2 DoOrth=T DoCkMO=T.
 Generating alternative initial guess.
 ExpMin= 1.69D-01 ExpMax= 7.16D+01 ExpMxC= 7.16D+01 IAcc=2 IRadAn=         4 AccDes= 0.00D+00
 Harris functional with IExCor=  205 and IRadAn=       4 diagonalized for initial guess.
 HarFok:  IExCor=  205 AccDes= 0.00D+00 IRadAn=         4 IDoV= 1 UseB2=F ITyADJ=14
 ICtDFT=  3500011 ScaDFX=  1.000000  1.000000  1.000000  1.000000
 FoFCou: FMM=F IPFlag=           0 FMFlag=      100000 FMFlg1=           0
         NFxFlg=           0 DoJE=T BraDBF=F KetDBF=T FulRan=T
         wScrn=  0.000000 ICntrl=       500 IOpCl=  0 I1Cent=   200000004 NGrid=           0
         NMat0=    1 NMatS0=      1 NMatT0=    0 NMatD0=    1 NMtDS0=    0 NMtDT0=    0
 Petite list used in FoFCou.
 Harris En= -153.293881792468    
 Leave Link  401 at Sat Jan 31 20:59:58 2026, MaxMem=   536870912 cpu:               0.4 elap:               0.1
 (Enter /root/g16/l502.exe)
 Keep R1 ints in memory in canonical form, NReq=1542440.
 FoFCou: FMM=F IPFlag=           0 FMFlag=           0 FMFlg1=           0
         NFxFlg=           0 DoJE=F BraDBF=F KetDBF=F FulRan=T
         wScrn=  0.000000 ICntrl=       600 IOpCl=  0 I1Cent=           0 NGrid=           0
         NMat0=    1 NMatS0=    351 NMatT0=    0 NMatD0=    1 NMtDS0=    0 NMtDT0=    0
 Symmetry not used in FoFCou.
 Two-electron integral symmetry not used.
 Closed shell SCF:
 Using DIIS extrapolation, IDIIS=  1040.
 NGot=   536870912 LenX=   536806970 LenY=   536805853
 Requested convergence on RMS density matrix=1.00D-08 within 128 cycles.
 Requested convergence on MAX density matrix=1.00D-06.
 Requested convergence on             energy=1.00D-06.
 No special actions if energy rises.

 Cycle   1  Pass 1  IDiag  1:
 Inv3:  Mode=1 IEnd=     2528172.
 Iteration    1 A*A^-1 deviation from unit magnitude is 2.33D-15 for     67.
 Iteration    1 A*A^-1 deviation from orthogonality  is 1.60D-15 for    621     17.
 Iteration    1 A^-1*A deviation from unit magnitude is 2.44D-15 for    369.
 Iteration    1 A^-1*A deviation from orthogonality  is 2.22D-15 for    798    322.
 E= -153.017192963252    
 DIIS: error= 3.31D-03 at cycle   1 NSaved=   1.
 NSaved= 1 IEnMin= 1 EnMin= -153.017192963252     IErMin= 1 ErrMin= 3.31D-03
 ErrMax= 3.31D-03  0.00D+00 EMaxC= 1.00D-01 BMatC= 2.83D-04 BMatP= 2.83D-04
 IDIUse=3 WtCom= 9.67D-01 WtEn= 3.31D-02
 Coeff-Com:  0.100D+01
 Coeff-En:   0.100D+01
 Coeff:      0.100D+01
 Gap=     0.948 Goal=   None    Shift=    0.000
 GapD=    0.948 DampG=2.000 DampE=1.000 DampFc=2.0000 IDamp=-1.
 RMSDP=1.15D-03 MaxDP=5.71D-03              OVMax= 0.00D+00

 Cycle   2  Pass 1  IDiag  1:
 E= -153.017893811543     Delta-E=       -0.000700848291 Rises=F Damp=F
 DIIS: error= 1.25D-03 at cycle   2 NSaved=   2.
 NSaved= 2 IEnMin= 2 EnMin= -153.017893811543     IErMin= 2 ErrMin= 1.25D-03
 ErrMax= 1.25D-03  0.00D+00 EMaxC= 1.00D-01 BMatC= 3.29D-05 BMatP= 2.83D-04
 IDIUse=3 WtCom= 9.87D-01 WtEn= 1.25D-02
 Coeff-Com: -0.355D+00 0.136D+01
 Coeff-En:   0.000D+00 0.100D+01
 Coeff:     -0.351D+00 0.135D+01
 Gap=     0.535 Goal=   None    Shift=    0.000
 RMSDP=5.78D-04 MaxDP=3.10D-03 DE=-7.01D-04 OVMax= 0.00D+00

 Cycle   3  Pass 1  IDiag  1:
 E= -153.018009060497     Delta-E=       -0.000115248954 Rises=F Damp=F
 DIIS: error= 3.65D-04 at cycle   3 NSaved=   3.
 NSaved= 3 IEnMin= 3 EnMin= -153.018009060497     IErMin= 3 ErrMin= 3.65D-04
 ErrMax= 3.65D-04  0.00D+00 EMaxC= 1.00D-01 BMatC= 2.43D-06 BMatP= 3.29D-05
 IDIUse=3 WtCom= 9.96D-01 WtEn= 3.65D-03
 Coeff-Com: -0.788D-01 0.131D+00 0.948D+00
 Coeff-En:   0.000D+00 0.000D+00 0.100D+01
 Coeff:     -0.786D-01 0.131D+00 0.948D+00
 Gap=     0.535 Goal=   None    Shift=    0.000
 RMSDP=1.19D-04 MaxDP=5.80D-04 DE=-1.15D-04 OVMax= 0.00D+00

 Cycle   4  Pass 1  IDiag  1:
 E= -153.018015348148     Delta-E=       -0.000006287650 Rises=F Damp=F
 DIIS: error= 1.46D-04 at cycle   4 NSaved=   4.
 NSaved= 4 IEnMin= 4 EnMin= -153.018015348148     IErMin= 4 ErrMin= 1.46D-04
 ErrMax= 1.46D-04  0.00D+00 EMaxC= 1.00D-01 BMatC= 3.38D-07 BMatP= 2.43D-06
 IDIUse=3 WtCom= 9.99D-01 WtEn= 1.46D-03
 Coeff-Com:  0.382D-01-0.165D+00 0.101D+00 0.103D+01
 Coeff-En:   0.000D+00 0.000D+00 0.000D+00 0.100D+01
 Coeff:      0.381D-01-0.165D+00 0.101D+00 0.103D+01
 Gap=     0.535 Goal=   None    Shift=    0.000
 RMSDP=4.80D-05 MaxDP=2.16D-04 DE=-6.29D-06 OVMax= 0.00D+00

 Cycle   5  Pass 1  IDiag  1:
 E= -153.018016278757     Delta-E=       -0.000000930609 Rises=F Damp=F
 DIIS: error= 3.80D-05 at cycle   5 NSaved=   5.
 NSaved= 5 IEnMin= 5 EnMin= -153.018016278757     IErMin= 5 ErrMin= 3.80D-05
 ErrMax= 3.80D-05  0.00D+00 EMaxC= 1.00D-01 BMatC= 2.13D-08 BMatP= 3.38D-07
 IDIUse=1 WtCom= 1.00D+00 WtEn= 0.00D+00
 Coeff-Com: -0.107D-01 0.627D-01-0.111D+00-0.448D+00 0.151D+01
 Coeff:     -0.107D-01 0.627D-01-0.111D+00-0.448D+00 0.151D+01
 Gap=     0.535 Goal=   None    Shift=    0.000
 RMSDP=1.79D-05 MaxDP=1.16D-04 DE=-9.31D-07 OVMax= 0.00D+00

 Cycle   6  Pass 1  IDiag  1:
 E= -153.018016361962     Delta-E=       -0.000000083205 Rises=F Damp=F
 DIIS: error= 5.89D-06 at cycle   6 NSaved=   6.
 NSaved= 6 IEnMin= 6 EnMin= -153.018016361962     IErMin= 6 ErrMin= 5.89D-06
 ErrMax= 5.89D-06  0.00D+00 EMaxC= 1.00D-01 BMatC= 6.27D-10 BMatP= 2.13D-08
 IDIUse=1 WtCom= 1.00D+00 WtEn= 0.00D+00
 Coeff-Com:  0.410D-02-0.256D-01 0.511D-01 0.190D+00-0.751D+00 0.153D+01
 Coeff:      0.410D-02-0.256D-01 0.511D-01 0.190D+00-0.751D+00 0.153D+01
 Gap=     0.535 Goal=   None    Shift=    0.000
 RMSDP=2.89D-06 MaxDP=1.66D-05 DE=-8.32D-08 OVMax= 0.00D+00

 Cycle   7  Pass 1  IDiag  1:
 E= -153.018016364547     Delta-E=       -0.000000002586 Rises=F Damp=F
 DIIS: error= 1.27D-06 at cycle   7 NSaved=   7.
 NSaved= 7 IEnMin= 7 EnMin= -153.018016364547     IErMin= 7 ErrMin= 1.27D-06
 ErrMax= 1.27D-06  0.00D+00 EMaxC= 1.00D-01 BMatC= 1.68D-11 BMatP= 6.27D-10
 IDIUse=1 WtCom= 1.00D+00 WtEn= 0.00D+00
 Coeff-Com: -0.132D-02 0.838D-02-0.173D-01-0.614D-01 0.252D+00-0.615D+00
 Coeff-Com:  0.143D+01
 Coeff:     -0.132D-02 0.838D-02-0.173D-01-0.614D-01 0.252D+00-0.615D+00
 Coeff:      0.143D+01
 Gap=     0.535 Goal=   None    Shift=    0.000
 RMSDP=4.42D-07 MaxDP=2.09D-06 DE=-2.59D-09 OVMax= 0.00D+00

 Cycle   8  Pass 1  IDiag  1:
 E= -153.018016364615     Delta-E=       -0.000000000067 Rises=F Damp=F
 DIIS: error= 1.45D-07 at cycle   8 NSaved=   8.
 NSaved= 8 IEnMin= 8 EnMin= -153.018016364615     IErMin= 8 ErrMin= 1.45D-07
 ErrMax= 1.45D-07  0.00D+00 EMaxC= 1.00D-01 BMatC= 3.43D-13 BMatP= 1.68D-11
 IDIUse=1 WtCom= 1.00D+00 WtEn= 0.00D+00
 Coeff-Com:  0.215D-03-0.136D-02 0.278D-02 0.102D-01-0.416D-01 0.110D+00
 Coeff-Com: -0.357D+00 0.128D+01
 Coeff:      0.215D-03-0.136D-02 0.278D-02 0.102D-01-0.416D-01 0.110D+00
 Coeff:     -0.357D+00 0.128D+01
 Gap=     0.535 Goal=   None    Shift=    0.000
 RMSDP=6.18D-08 MaxDP=3.39D-07 DE=-6.73D-11 OVMax= 0.00D+00

 Cycle   9  Pass 1  IDiag  1:
 E= -153.018016364616     Delta-E=       -0.000000000001 Rises=F Damp=F
 DIIS: error= 1.74D-08 at cycle   9 NSaved=   9.
 NSaved= 9 IEnMin= 9 EnMin= -153.018016364616     IErMin= 9 ErrMin= 1.74D-08
 ErrMax= 1.74D-08  0.00D+00 EMaxC= 1.00D-01 BMatC= 1.00D-14 BMatP= 3.43D-13
 IDIUse=1 WtCom= 1.00D+00 WtEn= 0.00D+00
 Coeff-Com: -0.714D-05 0.469D-04-0.103D-03-0.336D-03 0.152D-02-0.536D-02
 Coeff-Com:  0.333D-01-0.258D+00 0.123D+01
 Coeff:     -0.714D-05 0.469D-04-0.103D-03-0.336D-03 0.152D-02-0.536D-02
 Coeff:      0.333D-01-0.258D+00 0.123D+01
 Gap=     0.535 Goal=   None    Shift=    0.000
 RMSDP=1.03D-08 MaxDP=5.30D-08 DE=-1.19D-12 OVMax= 0.00D+00

 Cycle  10  Pass 1  IDiag  1:
 E= -153.018016364616     Delta-E=       -0.000000000000 Rises=F Damp=F
 DIIS: error= 3.18D-09 at cycle  10 NSaved=  10.
 NSaved=10 IEnMin=10 EnMin= -153.018016364616     IErMin=10 ErrMin= 3.18D-09
 ErrMax= 3.18D-09  0.00D+00 EMaxC= 1.00D-01 BMatC= 6.67D-16 BMatP= 1.00D-14
 IDIUse=1 WtCom= 1.00D+00 WtEn= 0.00D+00
 Coeff-Com: -0.105D-04 0.669D-04-0.140D-03-0.488D-03 0.204D-02-0.564D-02
 Coeff-Com:  0.212D-01-0.100D+00 0.220D+00 0.863D+00
 Coeff:     -0.105D-04 0.669D-04-0.140D-03-0.488D-03 0.204D-02-0.564D-02
 Coeff:      0.212D-01-0.100D+00 0.220D+00 0.863D+00
 Gap=     0.535 Goal=   None    Shift=    0.000
 RMSDP=1.65D-09 MaxDP=1.30D-08 DE=-3.98D-13 OVMax= 0.00D+00

 Error on total polarization charges =  0.00345
 SCF Done:  E(RHF) =  -153.018016365     A.U. after   10 cycles
            NFock= 10  Conv=0.16D-08     -V/T= 2.0067
 KE= 1.520057395792D+02 PE=-5.670809407011D+02 EE= 1.566979728573D+02
 Leave Link  502 at Sat Jan 31 20:59:58 2026, MaxMem=   536870912 cpu:               2.3 elap:               0.6
 (Enter /root/g16/l701.exe)
 ... and contract with generalized density number  0.
 Compute integral first derivatives.
 D1PCM: PCM CHGder 1st derivatives, ID1Alg=3 FixD1E=F DoIter=F DoCFld=F I1PDM=0.
 GePol: Maximum number of non-zero 1st derivatives   =     238
 Leave Link  701 at Sat Jan 31 20:59:59 2026, MaxMem=   536870912 cpu:               0.7 elap:               0.2
 (Enter /root/g16/l702.exe)
 L702 exits ... SP integral derivatives will be done elsewhere.
 Leave Link  702 at Sat Jan 31 20:59:59 2026, MaxMem=   536870912 cpu:               0.1 elap:               0.0
 (Enter /root/g16/l703.exe)
 Integral derivatives from FoFJK, PRISM(SPDF).
 Compute integral first derivatives, UseDBF=F ICtDFT=           0.
 Calling FoFJK, ICntrl=      2127 FMM=F ISym2X=0 I1Cent= 0 IOpClX= 0 NMat=1 NMatS=1 NMatT=0.
 FoFJK:  IHMeth= 1 ICntrl=    2127 DoSepK=F KAlg= 0 I1Cent=           0 FoldK=F
 IRaf=         0 NMat=       1 IRICut=       1 DoRegI=T DoRafI=F ISym2E= 0 IDoP0=0 IntGTp=1.
 FoFCou: FMM=F IPFlag=           0 FMFlag=      100000 FMFlg1=         800
         NFxFlg=           0 DoJE=F BraDBF=F KetDBF=F FulRan=T
         wScrn=  0.000000 ICntrl=      2127 IOpCl=  0 I1Cent=           0 NGrid=           0
         NMat0=    1 NMatS0=      1 NMatT0=    0 NMatD0=    1 NMtDS0=    0 NMtDT0=    0
[...]
   D12        3.14049   0.00000   0.00000   0.00080   0.00080   3.14129
         Item               Value     Threshold  Converged?
 Maximum Force            0.000003     0.000450     YES
 RMS     Force            0.000001     0.000300     YES
 Maximum Displacement     0.017997     0.001800     NO 
 RMS     Displacement     0.006117     0.001200     NO 
 Predicted change in Energy=-1.724350D-08
 Optimization completed on the basis of negligible forces.
    -- Stationary point found.
                           ----------------------------
                           !   Optimized Parameters   !
                           ! (Angstroms and Degrees)  !
 --------------------------                            --------------------------
 ! Name  Definition              Value          Derivative Info.                !
 --------------------------------------------------------------------------------
 ! R1    R(1,2)                  1.3138         -DE/DX =    0.0                 !
 ! R2    R(1,5)                  1.0814         -DE/DX =    0.0                 !
 ! R3    R(1,6)                  1.0812         -DE/DX =    0.0                 !
 ! R4    R(2,3)                  1.4949         -DE/DX =    0.0                 !
 ! R5    R(2,7)                  1.0844         -DE/DX =    0.0                 !
 ! R6    R(3,4)                  1.3138         -DE/DX =    0.0                 !
 ! R7    R(3,8)                  1.0844         -DE/DX =    0.0                 !
 ! R8    R(4,9)                  1.0814         -DE/DX =    0.0                 !
 ! R9    R(4,10)                 1.0812         -DE/DX =    0.0                 !
 ! A1    A(2,1,5)              121.4992         -DE/DX =    0.0                 !
 ! A2    A(2,1,6)              122.7846         -DE/DX =    0.0                 !
 ! A3    A(5,1,6)              115.7162         -DE/DX =    0.0                 !
 ! A4    A(1,2,3)              126.2165         -DE/DX =    0.0                 !
 ! A5    A(1,2,7)              119.1485         -DE/DX =    0.0                 !
 ! A6    A(3,2,7)              114.6349         -DE/DX =    0.0                 !
 ! A7    A(2,3,4)              126.2165         -DE/DX =    0.0                 !
 ! A8    A(2,3,8)              114.6349         -DE/DX =    0.0                 !
 ! A9    A(4,3,8)              119.1485         -DE/DX =    0.0                 !
 ! A10   A(3,4,9)              121.4992         -DE/DX =    0.0                 !
 ! A11   A(3,4,10)             122.7846         -DE/DX =    0.0                 !
 ! A12   A(9,4,10)             115.7162         -DE/DX =    0.0                 !
 ! D1    D(5,1,2,3)            179.998          -DE/DX =    0.0                 !
 ! D2    D(5,1,2,7)             -0.0438         -DE/DX =    0.0                 !
 ! D3    D(6,1,2,3)             -0.0213         -DE/DX =    0.0                 !
 ! D4    D(6,1,2,7)            179.9368         -DE/DX =    0.0                 !
 ! D5    D(1,2,3,4)             -0.9376         -DE/DX =    0.0                 !
 ! D6    D(1,2,3,8)            179.1026         -DE/DX =    0.0                 !
 ! D7    D(7,2,3,4)            179.1026         -DE/DX =    0.0                 !
 ! D8    D(7,2,3,8)             -0.8572         -DE/DX =    0.0                 !
 ! D9    D(2,3,4,9)            179.998          -DE/DX =    0.0                 !
 ! D10   D(2,3,4,10)            -0.0213         -DE/DX =    0.0                 !
 ! D11   D(8,3,4,9)             -0.0438         -DE/DX =    0.0                 !
 ! D12   D(8,3,4,10)           179.9368         -DE/DX =    0.0                 !
 --------------------------------------------------------------------------------
 GradGradGradGradGradGradGradGradGradGradGradGradGradGradGradGradGradGrad

 Leave Link  103 at Sat Jan 31 21:00:09 2026, MaxMem=   536870912 cpu:               0.2 elap:               0.1
 (Enter /root/g16/l9999.exe)

 ----------------------------------------------------------------------

 Electric dipole moment (input orientation):
 (Debye = 10**-18 statcoulomb cm , SI units = C m)
                  (au)            (Debye)         (10**-30 SI)
   Tot        0.138312D-01      0.351554D-01      0.117266D+00
   x          0.000000D+00      0.000000D+00      0.000000D+00
   y          0.000000D+00      0.000000D+00      0.000000D+00
   z         -0.138312D-01     -0.351554D-01     -0.117266D+00

 Dipole polarizability, Alpha (input orientation).
 (esu units = cm**3 , SI units = C**2 m**2 J**-1)
 Alpha(0;0):
               (au)            (10**-24 esu)      (10**-40 SI)
   iso        0.265056D+02      0.392773D+01      0.437019D+01
   aniso      0.334822D+02      0.496155D+01      0.552047D+01
   xx         0.415348D+02      0.615483D+01      0.684817D+01
   yx        -0.210631D+01     -0.312123D+00     -0.347284D+00
   yy         0.485449D+01      0.719361D+00      0.800397D+00
   zx         0.744598D-03      0.110338D-03      0.122768D-03
   zy         0.115732D-01      0.171496D-02      0.190816D-02
   zz         0.331276D+02      0.490900D+01      0.546200D+01

 First dipole hyperpolarizability, Beta (input orientation).
 ||, _|_  parallel and perpendicular components, (z) with respect to z axis,
 vector components x,y,z.  Values do not include the 1/n! factor of 1/2.
 (esu units = statvolt**-1 cm**4 , SI units = C**3 m**3 J**-2)
 Beta(0;0,0):
               (au)            (10**-30 esu)      (10**-50 SI)
   || (z)    -0.795101D+01     -0.686905D-01     -0.254938D-01
   _|_(z)    -0.265034D+01     -0.228968D-01     -0.849793D-02
   x         -0.546043D-03     -0.471739D-05     -0.175081D-05
   y         -0.162335D-01     -0.140244D-03     -0.520503D-04
   z         -0.397550D+02     -0.343452D+00     -0.127469D+00
   ||         0.795101D+01      0.686905D-01      0.254938D-01
   xxx       -0.574170D-03     -0.496038D-05     -0.184100D-05
   xxy       -0.567013D-02     -0.489855D-04     -0.181805D-04
   yxy        0.626967D-03      0.541651D-05      0.201028D-05
   yyy       -0.983296D-03     -0.849491D-05     -0.315280D-05
   xxz       -0.139382D+02     -0.120415D+00     -0.446908D-01
   yxz        0.781168D+00      0.674868D-02      0.250471D-02
   yyz       -0.802853D+00     -0.693602D-02     -0.257424D-02
   zxz       -0.234811D-03     -0.202859D-05     -0.752890D-06
   zyz        0.124227D-02      0.107322D-04      0.398317D-05
   zzz        0.148934D+01      0.128668D-01      0.477538D-02

 ----------------------------------------------------------------------

 Dipole orientation:
     6          2.87486012          0.16093960         -0.96812894
     6          1.40979240          0.08700168          1.03477433
     6         -1.40979704         -0.08689438          1.03477435
     6         -2.87486486         -0.16083137         -0.96812889
     1          4.90751963          0.28773955         -0.80007304
     1          2.14510848          0.09965592         -2.87546391
     1          2.26153288          0.15349215          2.89749569
     1         -2.26153744         -0.15338553          2.89749572
     1         -4.90752436         -0.28763135         -0.80007296
     1         -2.14511329         -0.09954695         -2.87546386

 Electric dipole moment (dipole orientation):
 (Debye = 10**-18 statcoulomb cm , SI units = C m)
                  (au)            (Debye)         (10**-30 SI)
   Tot        0.138312D-01      0.351554D-01      0.117266D+00
   x          0.000000D+00      0.000000D+00      0.000000D+00
   y          0.000000D+00      0.000000D+00      0.000000D+00
   z          0.138312D-01      0.351554D-01      0.117266D+00

 Dipole polarizability, Alpha (dipole orientation).
 (esu units = cm**3 , SI units = C**2 m**2 J**-1)
 Alpha(0;0):
               (au)            (10**-24 esu)      (10**-40 SI)
   iso        0.265056D+02      0.392773D+01      0.437019D+01
   aniso      0.334822D+02      0.496155D+01      0.552047D+01
   xx         0.415348D+02      0.615483D+01      0.684817D+01
   yx         0.210631D+01      0.312123D+00      0.347284D+00
   yy         0.485448D+01      0.719360D+00      0.800396D+00
   zx         0.000000D+00      0.000000D+00      0.000000D+00
   zy         0.000000D+00      0.000000D+00      0.000000D+00
   zz         0.331276D+02      0.490900D+01      0.546200D+01

 First dipole hyperpolarizability, Beta (dipole orientation).
 ||, _|_  parallel and perpendicular components, (z) with respect to z axis,
 vector components x,y,z.  Values do not include the 1/n! factor of 1/2.
 (esu units = statvolt**-1 cm**4 , SI units = C**3 m**3 J**-2)
 Beta(0;0,0):
               (au)            (10**-30 esu)      (10**-50 SI)
   || (z)     0.795101D+01      0.686905D-01      0.254938D-01
   _|_(z)     0.265034D+01      0.228968D-01      0.849793D-02
   x          0.000000D+00      0.000000D+00      0.000000D+00
   y          0.000000D+00      0.000000D+00      0.000000D+00
   z          0.397550D+02      0.343453D+00      0.127469D+00
   ||         0.795101D+01      0.686905D-01      0.254938D-01
   xxx        0.000000D+00      0.000000D+00      0.000000D+00
   xxy        0.000000D+00      0.000000D+00      0.000000D+00
   yxy        0.000000D+00      0.000000D+00      0.000000D+00
   yyy        0.000000D+00      0.000000D+00      0.000000D+00
   xxz        0.139382D+02      0.120415D+00      0.446908D-01
   yxz        0.781168D+00      0.674868D-02      0.250471D-02
   yyz        0.802853D+00      0.693603D-02      0.257424D-02
   zxz        0.000000D+00      0.000000D+00      0.000000D+00
   zyz        0.000000D+00      0.000000D+00      0.000000D+00
   zzz       -0.148935D+01     -0.128668D-01     -0.477538D-02

 ----------------------------------------------------------------------
 1\1\GINC-DESKTOP-VHTRF8G\Freq\RHF\STO-3G\C4H6\ROOT\31-Jan-2026\0\\#P G
 eom=AllCheck Guess=TCheck SCRF=Check GenChk RHF/STO-3G Freq\\butadiene
 _conf_001\\0,1\C,1.5213175042,-0.0849562711,0.5123256089\C,0.746022481
 ,-0.046263005,-0.5475703967\C,-0.7460399945,0.0457588215,-0.5475874898
 \C,-1.5213059246,0.0853175879,0.5122978468\H,2.5969533701,-0.152092243
 6,0.4234068874\H,1.1351634406,-0.0521140085,1.5216357833\H,1.196730581
 ,-0.0818509365,-1.5332718305\H,-1.1967751547,0.0805417333,-1.533305284
 4\H,-2.5969442331,0.1523809139,0.42335386\H,-1.13512415,0.0532996082,1
 .521623905\\Version=ES64L-G16RevA.03\State=1-A\HF=-153.0180796\RMSD=4.
 716e-10\RMSF=1.613e-06\ZeroPoint=0.0996275\Thermal=0.1042312\Dipole=-0
 .0000002,-0.0000057,-0.0138312\DipoleDeriv=-0.209879,-0.0001222,-0.040
 8691,0.0001283,-0.188531,0.0031113,-0.0070115,0.0018666,-0.0970491,0.1
 749511,-0.0135613,-0.0935568,-0.0157915,-0.055327,0.0076425,-0.321417,
 0.0182983,-0.059034,0.1749625,-0.0134854,0.0935614,-0.0155293,-0.05534
 81,-0.007645,0.3214233,-0.0183009,-0.0590242,-0.2098777,-0.0000889,0.0
 408722,0.000134,-0.188535,-0.0030366,0.0070145,-0.0017919,-0.0970464,0
 .1134248,-0.0008575,0.0698167,-0.0016287,0.0816747,-0.0052192,-0.02854
 48,0.0010443,0.0247247,-0.0210612,0.0067989,-0.0067899,0.0083911,0.090
 4515,0.0008089,0.1213171,-0.007232,0.0761152,-0.057439,0.0077075,-0.01
 36936,0.0088359,0.0717386,0.0010971,0.07653,-0.0046158,0.0552397,-0.05
 74407,0.0077188,0.0136903,0.0087734,0.0717415,-0.0011109,-0.0765341,0.
 0046021,0.0552385,0.1134236,-0.0009145,-0.0698184,-0.0016052,0.0816781
 ,0.0051727,0.0285436,-0.0010908,0.0247225,-0.0210644,0.0068046,0.00678
 7,0.008292,0.0904567,-0.0008209,-0.1213213,0.0072201,0.0761131\Polar=4
 1.5348365,-2.1063115,4.8544895,0.0007446,0.0115732,33.1275556\PolarDer
 iv=7.3808876,0.0478269,0.3347795,2.9283024,0.1096269,2.5341864,0.44325
 38,6.6954387,-0.7166919,0.0631013,4.0805426,-0.1986261,12.2325224,-0.6
 768674,0.6149445,5.2094466,-0.3347409,0.9289211,-23.1375255,0.8811743,
 0.092139,-2.8974617,-0.0611299,-0.2451767,0.5437552,-6.2919224,0.64403
 6,-0.0483846,-3.3656045,0.0744777,-11.4749815,0.6037615,-0.4567057,-5.
 8753025,0.3861951,-1.0018195,23.1370514,-0.8835252,-0.0922511,-2.89720
 83,-0.0608404,0.2454079,-0.5531285,6.2922833,-0.6499053,-0.048712,-3.3
 656222,-0.0697956,-11.4748463,0.6034345,-0.4568036,5.8752163,-0.383906
 ,-1.001461,-7.380391,-0.0454511,-0.3345851,2.9283305,0.107841,-2.53449
 93,-0.4332608,-6.6958269,0.7238581,0.0643325,4.0805702,0.1927161,12.23
 27969,-0.6756429,0.6149097,-5.2093371,0.33168,0.9285726,10.6069135,-0.
 5409541,0.1744644,0.9382915,-0.0854182,-0.0082847,-0.493547,1.4164616,
 -0.1924894,-0.062437,-0.4357789,0.0112813,-0.3416612,0.0261036,-0.1668
 942,3.0007142,-0.1668436,0.9994002,0.7538048,-0.0891308,-0.1515237,2.3
 275934,-0.0857048,-0.5640622,-0.1540322,-0.9199825,0.1444876,-0.069918
 ,1.0983496,0.1157446,0.1447982,0.0139452,0.0961653,0.761349,0.0153721,
 6.8138683,1.3530071,-0.0126553,0.1211312,-3.2966862,0.1238001,1.748253
 1,0.1384209,1.3573141,-0.1907861,0.1187,-1.3775862,-0.1714029,-0.56069
 72,0.0341201,-0.0876002,1.7826813,-0.1566402,-7.7402731,-1.3532034,0.0
 099674,-0.1209325,-3.2967552,0.122475,-1.7484857,-0.1388721,-1.3572275
 ,0.1884646,0.1183609,-1.3774397,0.1673248,-0.5606447,0.0337765,-0.0875
 ,-1.7829124,0.151511,-7.7405172,-10.6068714,0.5417184,-0.1746084,0.938
 0585,-0.0852791,0.0084,0.4932643,-1.4165042,0.1916414,-0.0637446,-0.43
 57687,-0.00975,-0.3419377,0.0247995,-0.1667727,-3.0006724,0.1681534,0.
 9992997,-0.7536731,0.0910295,0.1513866,2.3275352,-0.0853705,0.5642612,
 0.1541464,0.9199659,-0.142615,-0.0712983,1.0983379,-0.11197,0.1446512,
 0.0125694,0.096257,-0.7611829,-0.010781,6.814009\HyperPolar=-0.0005742
 ,-0.0056701,0.000627,-0.0009833,-13.9381687,0.7811677,-0.8028527,-0.00
 02348,0.0012423,1.4893449\Quadrupole=0.6183227,-1.4404153,0.8220926,-0
 .1278639,0.000055,0.0009256\PG=C01 [X(C4H6)]\NImag=0\\1.01249738,-0.05
 135920,0.16088809,0.15646367,-0.00122335,1.11654151,-0.37763437,0.0160
 6980,-0.28972519,0.88699994,0.01598861,-0.07528949,0.01341050,-0.04209
 988,0.18184716,-0.31011433,0.01455775,-0.59660067,0.15998452,-0.002511
 65,1.12932977,-0.03756527,0.00277363,-0.01994510,-0.31850044,0.0146838
 7,0.02214488,0.88699116,0.00249238,0.00866732,0.00120812,0.01466574,-0
 .08460863,-0.00142285,-0.04223041,0.18185190,-0.03201896,0.00200877,0.
 01574544,-0.02215198,0.00137674,-0.14057541,-0.15994343,0.00328656,1.1
 2933382,0.00467029,-0.00026414,0.00736598,-0.03756385,0.00251849,0.032
 01837,-0.37761791,0.01624147,0.31009516,1.01248879,-0.00027016,0.00028
 612,-0.00044019,0.00278986,0.00866470,-0.00200306,0.01630597,-0.075312
 68,-0.01498389,-0.05148688,0.16089072,-0.00736605,0.00043504,-0.006036
 07,0.01994429,-0.00120241,0.01574663,0.28970596,-0.01383664,-0.5965939
 5,-0.15641882,0.00200519,1.11654746,-0.47253197,0.02642718,0.03675854,
 -0.01191571,0.00141457,0.01009239,-0.00036069,0.00101868,-0.00341549,0
 .00102216,-0.00011414,0.00009262,0.48509790,0.02646373,-0.05093449,-0.
 00259290,0.00096283,0.00972174,-0.00057946,0.00105886,0.01607381,-0.00
 004011,-0.00006825,-0.00095611,0.00001785,-0.02819390,0.03480677,0.041
 40205,-0.00287800,-0.08653339,-0.03915229,0.00237909,0.00766168,-0.000
 67066,-0.00013233,-0.00457166,0.00022610,0.00000664,-0.00048410,-0.035
 38366,0.00256176,0.07601323,-0.13843342,0.00652153,0.13669336,0.018210
 83,-0.00092435,-0.02881256,0.00102458,-0.00073095,0.00225565,-0.000943
 88,0.00008537,-0.00108887,-0.00287692,0.00072998,0.03478952,0.12795966
 ,0.00646910,-0.05363088,-0.01178951,-0.00042296,0.00745341,0.00158215,
 -0.00079482,-0.01086066,-0.00000791,0.00006686,0.00065195,0.00003458,0
 .00035376,0.00410729,-0.00213727,-0.00708617,0.03365399,0.13346357,-0.
 01154064,-0.42231802,0.01644761,-0.00123091,-0.01728769,0.00087842,0.0
 0007216,0.00038309,0.00098875,-0.00005197,0.00055036,-0.00843373,0.000
 52866,0.00479292,-0.14092620,0.01227298,0.43532031,0.01478909,-0.00062
 942,-0.03171398,-0.14760839,0.00683774,0.15008962,-0.01265116,0.001322
 13,0.03656179,-0.00587011,0.00048604,-0.00310668,0.00202665,-0.0008749
 6,0.00030792,-0.00325766,0.00127570,-0.00281095,0.15009126,-0.00025965
 ,0.00893183,0.00162358,0.00687845,-0.05759900,-0.01183450,0.00088521,0
 .00459556,-0.00217036,0.00047667,0.00138583,0.00014300,-0.00088072,-0.
 01214059,0.00010803,0.00127912,0.01784665,-0.00001138,-0.00815294,0.03
 783567,0.01828448,-0.00136172,-0.02088328,0.14627148,-0.01171125,-0.39
 983236,-0.00858988,0.00056350,0.00574728,-0.00110064,0.00004235,0.0000
 1818,-0.00009240,0.00011557,0.00240731,-0.00277510,0.00001635,-0.00260
 536,-0.15110319,0.01227191,0.41354116,-0.00587000,0.00048857,0.0031064
 5,-0.01265193,0.00129225,-0.03656235,-0.14761653,0.00671548,-0.1501020
 8,0.01478946,-0.00060349,0.03171351,-0.00040823,-0.00005697,-0.0014351
 4,0.00010236,0.00001752,0.00025518,0.00278618,-0.00022627,-0.00059533,
 0.15009956,0.00047757,0.00138568,-0.00014413,0.00089229,0.00459687,0.0
 0217128,0.00675931,-0.05758000,0.01155480,-0.00027463,0.00893159,-0.00
 164792,0.00000171,-0.00026778,0.00009091,-0.00000133,0.00005691,-0.000
 01720,-0.00022578,-0.00064503,0.00005858,-0.00802987,0.03781588,0.0011
 0042,-0.00004348,0.00001821,0.00858966,-0.00056260,0.00574674,-0.14628
 397,0.01143156,-0.39984323,-0.01828524,0.00133738,-0.02088342,0.000246
 24,-0.00000319,0.00027378,0.00005318,-0.00000096,0.00019175,0.00059547
 ,-0.00005712,0.00114152,0.15111703,-0.01196484,0.41355266,0.00102215,-
 0.00011421,-0.00009257,-0.00036058,0.00102148,0.00341454,-0.01191491,0
 .00140627,-0.01009300,-0.47253411,0.02639723,-0.03676952,-0.00032099,-
 0.00004833,0.00008863,0.00026779,0.00002107,-0.00022408,-0.00040820,0.
 00000151,-0.00024623,0.00202664,-0.00088065,0.00009313,0.48509985,-0.0
 0006844,-0.00095613,-0.00001746,0.00105940,0.01607394,0.00002322,0.000
 99482,0.00972027,0.00057775,0.02642998,-0.05093005,0.00256309,-0.00004
 840,-0.00103890,0.00000677,0.00002717,0.00062828,0.00000210,-0.0000558
 0,-0.00026785,0.00000364,-0.00087522,-0.01214077,-0.00010366,-0.028165
 06,0.03480261,-0.00022609,-0.00000625,-0.00048407,0.00066968,0.0001154
 5,-0.00457190,0.03915203,-0.00238081,0.00766235,-0.04141305,0.00284820
 ,-0.08653569,-0.00008857,-0.00000563,0.00035351,0.00017245,0.00000515,
 0.00008671,0.00143520,-0.00009047,0.00027382,-0.00030719,-0.00009612,0
 .00240749,0.03539544,-0.00252733,0.07601545,-0.00094388,0.00008626,0.0
 0108884,0.00102450,-0.00073279,-0.00225507,0.01821117,-0.00090079,0.02
 881233,-0.13844084,0.00641021,-0.13670644,0.00026779,0.00002702,-0.000
 17247,-0.00205335,0.00009993,0.00036142,0.00010236,-0.00000137,-0.0000
 5318,-0.00325751,0.00128138,0.00277407,-0.00287764,0.00070156,-0.03478
 989,0.12796739,0.00006606,0.00065196,-0.00003466,-0.00079554,-0.010860
 70,0.00001712,-0.00043643,0.00745310,-0.00160234,0.00636042,-0.0536120
 7,0.01148822,0.00002125,0.00062827,-0.00000559,0.00009963,0.00009306,-
 0.00002380,0.00001731,0.00005693,0.00000107,0.00127799,0.01784663,-0.0
 0003309,0.00036071,0.00410861,0.00213781,-0.00697140,0.03363421,-0.000
 98876,0.00005188,0.00055034,-0.00087779,-0.00006296,0.00038322,-0.0164
 4824,0.00121073,-0.01728773,-0.13347661,0.01123935,-0.42232940,0.00022
 406,-0.00000255,0.00008672,-0.00036142,0.00002445,0.00088594,-0.000255
 19,0.00001731,0.00019174,0.00280993,-0.00000535,-0.00260550,0.00843365
 ,-0.00052812,0.00479233,0.14094038,-0.01194474,0.43533235\\0.00000177,
 -0.00000055,0.00000127,-0.00000542,-0.00000021,-0.00000128,0.00000542,
 0.00000022,-0.00000128,-0.00000177,0.00000054,0.00000127,-0.00000042,-
 0.00000114,0.00000006,0.00000077,0.00000030,-0.00000049,-0.00000022,-0
 .00000052,0.00000043,0.00000022,0.00000052,0.00000044,0.00000042,0.000
 00115,0.00000006,-0.00000077,-0.00000030,-0.00000049\\\@


 REVOLUTIONS HAVE NEVER LIGHTENED THE BURDEN OF TYRANNY:
 THEY HAVE MERELY SHIFTED IT TO OTHER SHOULDERS.
                                   -- G. B. SHAW (1903)
 Job cpu time:       0 days  0 hours  0 minutes 12.3 seconds.
 Elapsed time:       0 days  0 hours  0 minutes  3.1 seconds.
 File lengths (MBytes):  RWF=     39 Int=      0 D2E=      0 Chk=      7 Scr=      1
 Normal termination of Gaussian 16 at Sat Jan 31 21:00:10 2026.
