 Entering Gaussian System, Link 0=g16
 Initial command:
 /root/g16/l1.exe "/root/g16/scratch/gau_root_150658/Gau-150665.inp" -scrdir="/root/g16/scratch/gau_root_150658/"
 Entering Link 1 = /root/g16/l1.exe PID=    150667.
  
 Copyright (c) 1988,1990,1992,1993,1995,1998,2003,2009,2016,
            Gaussian, Inc.  All Rights Reserved.
  
 This is part of the Gaussian(R) 16 program.  It is based on
 the Gaussian(R) 09 system (copyright 2009, Gaussian, Inc.),
 the Gaussian(R) 03 system (copyright 2003, Gaussian, Inc.),
 the Gaussian(R) 98 system (copyright 1998, Gaussian, Inc.),
 the Gaussian(R) 94 system (copyright 1995, Gaussian, Inc.),
 the Gaussian 92(TM) system (copyright 1992, Gaussian, Inc.),
 the Gaussian 90(TM) system (copyright 1990, Gaussian, Inc.),
 the Gaussian 88(TM) system (copyright 1988, Gaussian, Inc.),
 the Gaussian 86(TM) system (copyright 1986, Carnegie Mellon
 University), and the Gaussian 82(TM) system (copyright 1983,
 Carnegie Mellon University). Gaussian is a federally registered
 trademark of Gaussian, Inc.
  
 This software contains proprietary and confidential information,
 including trade secrets, belonging to Gaussian, Inc.
  
 This software is provided under written license and may be
 used, copied, transmitted, or stored only in accord with that
 written license.
  
 The following legend is applicable only to US Government
 contracts under FAR:
  
                    RESTRICTED RIGHTS LEGEND
  
 Use, reproduction and disclosure by the US Government is
 subject to restrictions as set forth in subparagraphs (a)
 and (c) of the Commercial Computer Software - Restricted
 Rights clause in FAR 52.227-19.
  
 Gaussian, Inc.
 340 Quinnipiac St., Bldg. 40, Wallingford CT 06492
  
  
 ---------------------------------------------------------------
 Warning -- This program may not be used in any manner that
 competes with the business of Gaussian, Inc. or will provide
 assistance to any competitor of Gaussian, Inc.  The licensee
 of this program is prohibited from giving any competitor of
 Gaussian, Inc. access to this program.  By using this program,
 the user acknowledges that Gaussian, Inc. is engaged in the
 business of creating and licensing software in the field of
 computational chemistry and represents and warrants to the
 licensee that it is not a competitor of Gaussian, Inc. and that
 it will not use this program in any manner prohibited above.
 ---------------------------------------------------------------
  

 Cite this work as:
 Gaussian 16, Revision A.03,
 M. J. Frisch, G. W. Trucks, H. B. Schlegel, G. E. Scuseria, 
 M. A. Robb, J. R. Cheeseman, G. Scalmani, V. Barone, 
 G. A. Petersson, H. Nakatsuji, X. Li, M. Caricato, A. V. Marenich, 
 J. Bloino, B. G. Janesko, R. Gomperts, B. Mennucci, H. P. Hratchian, 
 J. V. Ortiz, A. F. Izmaylov, J. L. Sonnenberg, D. Williams-Young, 
 F. Ding, F. Lipparini, F. Egidi, J. Goings, B. Peng, A. Petrone, 
 T. Henderson, D. Ranasinghe, V. G. Zakrzewski, J. Gao, N. Rega, 
 G. Zheng, W. Liang, M. Hada, M. Ehara, K. Toyota, R. Fukuda, 
 J. Hasegawa, M. Ishida, T. Nakajima, Y. Honda, O. Kitao, H. Nakai, 
 T. Vreven, K. Throssell, J. A. Montgomery, Jr., J. E. Peralta, 
 F. Ogliaro, M. J. Bearpark, J. J. Heyd, E. N. Brothers, K. N. Kudin, 
 V. N. Staroverov, T. A. Keith, R. Kobayashi, J. Normand, 
 K. Raghavachari, A. P. Rendell, J. C. Burant, S. S. Iyengar, 
 J. Tomasi, M. Cossi, J. M. Millam, M. Klene, C. Adamo, R. Cammi, 
 J. W. Ochterski, R. L. Martin, K. Morokuma, O. Farkas, 
 J. B. Foresman, and D. J. Fox, Gaussian, Inc., Wallingford CT, 2016.
 
 ******************************************
 Gaussian 16:  ES64L-G16RevA.03 25-Dec-2016
                31-Jan-2026 
 ******************************************
 %chk=conf_000.chk
 %mem=4GB
 %nprocshared=4
 Will use up to    4 processors via shared memory.
 -------------------------------------------------------
 #p HF/STO-3G SCRF=(PCM,Solvent=Acetone) Opt=CalcFC Freq
 -------------------------------------------------------
 1/10=4,18=20,19=15,26=6,38=1/1,3;
 2/9=110,12=2,17=6,18=5,40=1/2;
 3/6=3,11=9,25=1,30=1,70=2201,71=2,72=19,140=1/1,2,3;
 4//1;
 5/5=2,38=5,53=19/2;
 8/6=4,10=90,11=11/1;
 11/6=1,8=1,9=11,15=111,16=1/1,2,10;
 10/6=1,13=1/2;
 6/7=2,8=2,9=2,10=2,28=1/1;
 7/10=1,18=20,25=1/1,2,3,16;
 1/10=4,18=20,19=15,26=6/3(2);
 2/9=110/2;
 99//99;
 2/9=110/2;
 3/6=3,11=9,25=1,30=1,70=2205,71=1,72=19/1,2,3;
 4/5=5,16=3,69=1/1;
 5/5=2,38=5,53=19/2;
 7//1,2,3,16;
 1/18=20,19=15,26=6/3(-5);
 2/9=110/2;
 6/7=2,8=2,9=2,10=2,19=2,28=1/1;
 99/9=1/99;
 Leave Link    1 at Sat Jan 31 20:59:39 2026, MaxMem=   536870912 cpu:               0.1 elap:               0.0
 (Enter /root/g16/l101.exe)
 ------------------
 butadiene_conf_000
 ------------------
 Symbolic Z-matrix:
 Charge =  0 Multiplicity = 1
 C                     1.82919   0.1174   -0.00013 
 C                     0.60427  -0.39867   0.00015 
 C                    -0.60423   0.39867  -0.00006 
 C                    -1.82922  -0.1174    0.00001 
 H                     2.71002  -0.5019   -0.00124 
 H                     1.99199   1.18325   0.00166 
 H                     0.46545  -1.47249   0.00048 
 H                    -0.46539   1.47248  -0.00012 
 H                    -2.71007   0.50186  -0.00056 
 H                    -1.99205  -1.18319   0.00017 
 
 ITRead=  0  0  0  0  0  0  0  0  0  0
 MicOpt= -1 -1 -1 -1 -1 -1 -1 -1 -1 -1
 NAtoms=     10 NQM=       10 NQMF=       0 NMMI=      0 NMMIF=      0
                NMic=       0 NMicF=      0.
                    Isotopes and Nuclear Properties:
 (Nuclear quadrupole moments (NQMom) in fm**2, nuclear magnetic moments (NMagM)
  in nuclear magnetons)

  Atom         1           2           3           4           5           6           7           8           9          10
 IAtWgt=          12          12          12          12           1           1           1           1           1           1
 AtmWgt=  12.0000000  12.0000000  12.0000000  12.0000000   1.0078250   1.0078250   1.0078250   1.0078250   1.0078250   1.0078250
 NucSpn=           0           0           0           0           1           1           1           1           1           1
 AtZEff=  -0.0000000  -0.0000000  -0.0000000  -0.0000000  -0.0000000  -0.0000000  -0.0000000  -0.0000000  -0.0000000  -0.0000000
 NQMom=    0.0000000   0.0000000   0.0000000   0.0000000   0.0000000   0.0000000   0.0000000   0.0000000   0.0000000   0.0000000
 NMagM=    0.0000000   0.0000000   0.0000000   0.0000000   2.7928460   2.7928460   2.7928460   2.7928460   2.7928460   2.7928460
 AtZNuc=   6.0000000   6.0000000   6.0000000   6.0000000   1.0000000   1.0000000   1.0000000   1.0000000   1.0000000   1.0000000
 Leave Link  101 at Sat Jan 31 20:59:39 2026, MaxMem=   536870912 cpu:               1.0 elap:               0.3
 (Enter /root/g16/l103.exe)

 GradGradGradGradGradGradGradGradGradGradGradGradGradGradGradGradGradGrad
 Berny optimization.
 Initialization pass.
                           ----------------------------
                           !    Initial Parameters    !
                           ! (Angstroms and Degrees)  !
 --------------------------                            --------------------------
 ! Name  Definition              Value          Derivative Info.                !
 --------------------------------------------------------------------------------
 ! R1    R(1,2)                  1.3292         calculate D2E/DX2 analytically  !
 ! R2    R(1,5)                  1.0768         calculate D2E/DX2 analytically  !
 ! R3    R(1,6)                  1.0782         calculate D2E/DX2 analytically  !
 ! R4    R(2,3)                  1.4478         calculate D2E/DX2 analytically  !
 ! R5    R(2,7)                  1.0828         calculate D2E/DX2 analytically  !
 ! R6    R(3,4)                  1.3293         calculate D2E/DX2 analytically  !
 ! R7    R(3,8)                  1.0827         calculate D2E/DX2 analytically  !
 ! R8    R(4,9)                  1.0767         calculate D2E/DX2 analytically  !
 ! R9    R(4,10)                 1.0782         calculate D2E/DX2 analytically  !
 ! A1    A(2,1,5)              122.0435         calculate D2E/DX2 analytically  !
 ! A2    A(2,1,6)              121.5302         calculate D2E/DX2 analytically  !
 ! A3    A(5,1,6)              116.4262         calculate D2E/DX2 analytically  !
 ! A4    A(1,2,3)              123.7382         calculate D2E/DX2 analytically  !
 ! A5    A(1,2,7)              120.2119         calculate D2E/DX2 analytically  !
 ! A6    A(3,2,7)              116.0499         calculate D2E/DX2 analytically  !
 ! A7    A(2,3,4)              123.7389         calculate D2E/DX2 analytically  !
 ! A8    A(2,3,8)              116.0484         calculate D2E/DX2 analytically  !
 ! A9    A(4,3,8)              120.2126         calculate D2E/DX2 analytically  !
 ! A10   A(3,4,9)              122.0463         calculate D2E/DX2 analytically  !
 ! A11   A(3,4,10)             121.5313         calculate D2E/DX2 analytically  !
 ! A12   A(9,4,10)             116.4224         calculate D2E/DX2 analytically  !
 ! D1    D(5,1,2,3)           -179.9194         calculate D2E/DX2 analytically  !
 ! D2    D(5,1,2,7)              0.0751         calculate D2E/DX2 analytically  !
 ! D3    D(6,1,2,3)              0.1374         calculate D2E/DX2 analytically  !
 ! D4    D(6,1,2,7)           -179.8681         calculate D2E/DX2 analytically  !
 ! D5    D(1,2,3,4)            179.9891         calculate D2E/DX2 analytically  !
 ! D6    D(1,2,3,8)             -0.0214         calculate D2E/DX2 analytically  !
 ! D7    D(7,2,3,4)             -0.0056         calculate D2E/DX2 analytically  !
 ! D8    D(7,2,3,8)            179.9839         calculate D2E/DX2 analytically  !
 ! D9    D(2,3,4,9)           -179.9747         calculate D2E/DX2 analytically  !
 ! D10   D(2,3,4,10)            -0.004          calculate D2E/DX2 analytically  !
 ! D11   D(8,3,4,9)              0.0362         calculate D2E/DX2 analytically  !
 ! D12   D(8,3,4,10)          -179.9931         calculate D2E/DX2 analytically  !
 --------------------------------------------------------------------------------
 Trust Radius=3.00D-01 FncErr=5.00D-06 GrdErr=5.00D-06 EigMax=2.50D+02 EigMin=1.00D-04
 Number of steps in this run=     43 maximum allowed number of steps=    100.
 GradGradGradGradGradGradGradGradGradGradGradGradGradGradGradGradGradGrad

 Leave Link  103 at Sat Jan 31 20:59:39 2026, MaxMem=   536870912 cpu:               0.1 elap:               0.0
 (Enter /root/g16/l202.exe)
                          Input orientation:                          
 ---------------------------------------------------------------------
 Center     Atomic      Atomic             Coordinates (Angstroms)
 Number     Number       Type             X           Y           Z
 ---------------------------------------------------------------------
      1          6           0        1.829192    0.117398   -0.000129
      2          6           0        0.604266   -0.398667    0.000153
      3          6           0       -0.604232    0.398672   -0.000064
      4          6           0       -1.829222   -0.117403    0.000007
      5          1           0        2.710020   -0.501901   -0.001240
      6          1           0        1.991992    1.183248    0.001660
      7          1           0        0.465448   -1.472490    0.000480
      8          1           0       -0.465389    1.472482   -0.000118
      9          1           0       -2.710069    0.501862   -0.000563
     10          1           0       -1.992046   -1.183191    0.000172
 ---------------------------------------------------------------------
                    Distance matrix (angstroms):
                    1          2          3          4          5
     1  C    0.000000
     2  C    1.329197   0.000000
     3  C    2.449626   1.447833   0.000000
     4  C    3.665940   2.449689   1.329260   0.000000
     5  H    1.076750   2.108283   3.434429   4.555497   0.000000
     6  H    1.078213   2.104339   2.712185   4.036505   1.831748
     7  H    2.094645   1.082758   2.155333   2.664915   2.445434
     8  H    2.664836   2.155311   1.082749   2.094702   3.739172
     9  H    4.555513   3.434497   2.108363   1.076746   5.512250
    10  H    4.036507   2.712253   2.104357   1.078154   4.751166
                    6          7          8          9         10
     6  H    0.000000
     7  H    3.063214   0.000000
     8  H    2.474345   3.088578   0.000000
     9  H    4.751176   3.739248   2.445545   0.000000
    10  H    4.633853   2.474464   3.063214   1.831655   0.000000
 Stoichiometry    C4H6
 Framework group  C1[X(C4H6)]
 Deg. of freedom    24
 Full point group                 C1      NOp   1
 Largest Abelian subgroup         C1      NOp   1
 Largest concise Abelian subgroup C1      NOp   1
                         Standard orientation:                         
 ---------------------------------------------------------------------
 Center     Atomic      Atomic             Coordinates (Angstroms)
 Number     Number       Type             X           Y           Z
 ---------------------------------------------------------------------
      1          6           0        1.829794    0.107620   -0.000136
      2          6           0        0.602128   -0.401892    0.000147
      3          6           0       -0.602092    0.401895   -0.000070
      4          6           0       -1.829822   -0.107625    0.000001
      5          1           0        2.707299   -0.516378   -0.001247
      6          1           0        1.998289    1.172584    0.001653
      7          1           0        0.457572   -1.474956    0.000473
      8          1           0       -0.457512    1.474948   -0.000124
      9          1           0       -2.707347    0.516339   -0.000569
     10          1           0       -1.998341   -1.172527    0.000165
 ---------------------------------------------------------------------
 Rotational constants (GHZ):          42.6649527           4.5000432           4.0706915
 Leave Link  202 at Sat Jan 31 20:59:39 2026, MaxMem=   536870912 cpu:               0.0 elap:               0.0
 (Enter /root/g16/l301.exe)
 Standard basis: STO-3G (5D, 7F)
 Ernie: Thresh=  0.10000D-02 Tol=  0.10000D-05 Strict=F.
 There are    26 symmetry adapted cartesian basis functions of A   symmetry.
 There are    26 symmetry adapted basis functions of A   symmetry.
    26 basis functions,    78 primitive gaussians,    26 cartesian basis functions
    15 alpha electrons       15 beta electrons
       nuclear repulsion energy       104.4424820964 Hartrees.
 IExCor=    0 DFT=F Ex=HF Corr=None ExCW=0 ScaHFX=  1.000000
 ScaDFX=  1.000000  1.000000  1.000000  1.000000 ScalE2=  1.000000  1.000000
 IRadAn=      5 IRanWt=     -1 IRanGd=            0 ICorTp=0 IEmpDi=  4
 NAtoms=   10 NActive=   10 NUniq=   10 SFac= 1.00D+00 NAtFMM=   60 NAOKFM=F Big=F
 Integral buffers will be    131072 words long.
 Raffenetti 1 integral format.
 Two-electron integral symmetry is turned on.
 Force inversion solution in PCM.
 ------------------------------------------------------------------------------
 Polarizable Continuum Model (PCM)
 =================================
 Model                : PCM.
 Atomic radii         : UFF (Universal Force Field).
 Polarization charges : Total charges.
 Charge compensation  : None.
 Solution method      : Matrix inversion.
 Cavity type          : Scaled VdW (van der Waals Surface) (Alpha=1.100).
 Cavity algorithm     : GePol (No added spheres)
                        Default sphere list used, NSphG=   10.
                        Lebedev-Laikov grids with approx.  5.0 points / Ang**2.
                        Smoothing algorithm: York/Karplus (Gamma=1.0000).
                        Polarization charges: spherical gaussians, with
                                              point-specific exponents (IZeta= 3).
                        Self-potential: point-specific (ISelfS= 7).
                        Self-field    : sphere-specific E.n sum rule (ISelfD= 2).
 1st derivatives      : Analytical E(r).r(x)/FMM algorithm (CHGder, D1EAlg=3).
                        Cavity 1st derivative terms included.
 2nd derivatives      : Analytical E(r).r(xy)/FMM algorithm (CHGder, D2EAlg=3).
                        Cavity 2nd derivative terms included.
 Solvent              : Acetone, Eps=  20.493000 Eps(inf)=   1.846337
 ------------------------------------------------------------------------------
 Spheres list:
 ISph  on   Nord     Re0    Alpha      Xe            Ye            Ze
    1   C      1    1.9255  1.100      1.829794      0.107620     -0.000136
    2   C      2    1.9255  1.100      0.602128     -0.401892      0.000147
    3   C      3    1.9255  1.100     -0.602092      0.401895     -0.000070
    4   C      4    1.9255  1.100     -1.829822     -0.107625      0.000001
    5   H      5    1.4430  1.100      2.707299     -0.516378     -0.001247
    6   H      6    1.4430  1.100      1.998289      1.172584      0.001653
    7   H      7    1.4430  1.100      0.457572     -1.474956      0.000473
    8   H      8    1.4430  1.100     -0.457512      1.474948     -0.000124
    9   H      9    1.4430  1.100     -2.707347      0.516339     -0.000569
   10   H     10    1.4430  1.100     -1.998341     -1.172527      0.000165
 ------------------------------------------------------------------------------
 GePol: Number of generator spheres                  =      10
 GePol: Total number of spheres                      =      10
 GePol: Number of exposed spheres                    =      10 (100.00%)
 GePol: Number of points                             =     908
 GePol: Average weight of points                     =       0.14
 GePol: Minimum weight of points                     =   0.33D-06
 GePol: Maximum weight of points                     =    0.20577
 GePol: Number of points with low weight             =      42
 GePol: Fraction of low-weight points (<1% of avg)   =       4.63%
 GePol: Cavity surface area                          =    127.770 Ang**2
 GePol: Cavity volume                                =    112.021 Ang**3
 Leave Link  301 at Sat Jan 31 20:59:39 2026, MaxMem=   536870912 cpu:               0.1 elap:               0.0
 (Enter /root/g16/l302.exe)
 NPDir=0 NMtPBC=     1 NCelOv=     1 NCel=       1 NClECP=     1 NCelD=      1
         NCelK=      1 NCelE2=     1 NClLst=     1 CellRange=     0.0.
 One-electron integrals computed using PRISM.
 One-electron integral symmetry used in STVInt
 NBasis=    26 RedAO= T EigKep=  1.81D-01  NBF=    26
 NBsUse=    26 1.00D-06 EigRej= -1.00D+00 NBFU=    26
 Leave Link  302 at Sat Jan 31 20:59:39 2026, MaxMem=   536870912 cpu:               0.2 elap:               0.0
 (Enter /root/g16/l303.exe)
 DipDrv:  MaxL=1.
 Leave Link  303 at Sat Jan 31 20:59:40 2026, MaxMem=   536870912 cpu:               0.1 elap:               0.0
 (Enter /root/g16/l401.exe)
 ExpMin= 1.69D-01 ExpMax= 7.16D+01 ExpMxC= 7.16D+01 IAcc=3 IRadAn=         5 AccDes= 0.00D+00
 Harris functional with IExCor=  205 and IRadAn=       5 diagonalized for initial guess.
 HarFok:  IExCor=  205 AccDes= 0.00D+00 IRadAn=         5 IDoV= 1 UseB2=F ITyADJ=14
 ICtDFT=  3500011 ScaDFX=  1.000000  1.000000  1.000000  1.000000
 FoFCou: FMM=F IPFlag=           0 FMFlag=      100000 FMFlg1=           0
         NFxFlg=           0 DoJE=T BraDBF=F KetDBF=T FulRan=T
         wScrn=  0.000000 ICntrl=       500 IOpCl=  0 I1Cent=   200000004 NGrid=           0
         NMat0=    1 NMatS0=      1 NMatT0=    0 NMatD0=    1 NMtDS0=    0 NMtDT0=    0
 Petite list used in FoFCou.
 Harris En= -153.297672735372    
 JPrj=0 DoOrth=F DoCkMO=F.
 Leave Link  401 at Sat Jan 31 20:59:40 2026, MaxMem=   536870912 cpu:               0.4 elap:               0.1
 (Enter /root/g16/l502.exe)
 Keep R1 ints in memory in canonical form, NReq=1541516.
 FoFCou: FMM=F IPFlag=           0 FMFlag=           0 FMFlg1=           0
         NFxFlg=           0 DoJE=F BraDBF=F KetDBF=F FulRan=T
         wScrn=  0.000000 ICntrl=       600 IOpCl=  0 I1Cent=           0 NGrid=           0
         NMat0=    1 NMatS0=    351 NMatT0=    0 NMatD0=    1 NMtDS0=    0 NMtDT0=    0
 Symmetry not used in FoFCou.
 Two-electron integral symmetry not used.
 Closed shell SCF:
 Using DIIS extrapolation, IDIIS=  1040.
 NGot=   536870912 LenX=   536806970 LenY=   536805853
 Requested convergence on RMS density matrix=1.00D-08 within 128 cycles.
 Requested convergence on MAX density matrix=1.00D-06.
 Requested convergence on             energy=1.00D-06.
 No special actions if energy rises.

 Cycle   1  Pass 1  IDiag  1:
 Inv3:  Mode=1 IEnd=     2473392.
 Iteration    1 A*A^-1 deviation from unit magnitude is 2.66D-15 for    636.
 Iteration    1 A*A^-1 deviation from orthogonality  is 1.67D-15 for    616    486.
 Iteration    1 A^-1*A deviation from unit magnitude is 2.78D-15 for    362.
 Iteration    1 A^-1*A deviation from orthogonality  is 2.66D-15 for    617    179.
 E= -152.942808449450    
 DIIS: error= 5.12D-02 at cycle   1 NSaved=   1.
 NSaved= 1 IEnMin= 1 EnMin= -152.942808449450     IErMin= 1 ErrMin= 5.12D-02
 ErrMax= 5.12D-02  0.00D+00 EMaxC= 1.00D-01 BMatC= 7.65D-02 BMatP= 7.65D-02
 IDIUse=3 WtCom= 4.88D-01 WtEn= 5.12D-01
 Coeff-Com:  0.100D+01
 Coeff-En:   0.100D+01
 Coeff:      0.100D+01
 Gap=     0.501 Goal=   None    Shift=    0.000
 GapD=    0.501 DampG=2.000 DampE=0.500 DampFc=1.0000 IDamp=-1.
 RMSDP=1.30D-02 MaxDP=8.94D-02              OVMax= 0.00D+00

 Cycle   2  Pass 1  IDiag  1:
 E= -153.018182147815     Delta-E=       -0.075373698365 Rises=F Damp=F
 DIIS: error= 5.04D-03 at cycle   2 NSaved=   2.
 NSaved= 2 IEnMin= 2 EnMin= -153.018182147815     IErMin= 2 ErrMin= 5.04D-03
 ErrMax= 5.04D-03  0.00D+00 EMaxC= 1.00D-01 BMatC= 5.20D-04 BMatP= 7.65D-02
 IDIUse=3 WtCom= 9.50D-01 WtEn= 5.04D-02
 Coeff-Com: -0.394D-01 0.104D+01
 Coeff-En:   0.000D+00 0.100D+01
 Coeff:     -0.374D-01 0.104D+01
 Gap=     0.508 Goal=   None    Shift=    0.000
 RMSDP=1.14D-03 MaxDP=9.55D-03 DE=-7.54D-02 OVMax= 0.00D+00

 Cycle   3  Pass 1  IDiag  1:
 E= -153.018811634952     Delta-E=       -0.000629487137 Rises=F Damp=F
 DIIS: error= 1.98D-03 at cycle   3 NSaved=   3.
 NSaved= 3 IEnMin= 3 EnMin= -153.018811634952     IErMin= 3 ErrMin= 1.98D-03
 ErrMax= 1.98D-03  0.00D+00 EMaxC= 1.00D-01 BMatC= 3.63D-05 BMatP= 5.20D-04
 IDIUse=3 WtCom= 9.80D-01 WtEn= 1.98D-02
 Coeff-Com: -0.678D-02 0.785D-01 0.928D+00
 Coeff-En:   0.000D+00 0.000D+00 0.100D+01
 Coeff:     -0.665D-02 0.769D-01 0.930D+00
 Gap=     0.510 Goal=   None    Shift=    0.000
 RMSDP=4.22D-04 MaxDP=3.34D-03 DE=-6.29D-04 OVMax= 0.00D+00

 Cycle   4  Pass 1  IDiag  1:
 E= -153.018878244647     Delta-E=       -0.000066609695 Rises=F Damp=F
 DIIS: error= 7.79D-04 at cycle   4 NSaved=   4.
 NSaved= 4 IEnMin= 4 EnMin= -153.018878244647     IErMin= 4 ErrMin= 7.79D-04
 ErrMax= 7.79D-04  0.00D+00 EMaxC= 1.00D-01 BMatC= 5.30D-06 BMatP= 3.63D-05
 IDIUse=3 WtCom= 9.92D-01 WtEn= 7.79D-03
 Coeff-Com:  0.251D-02-0.746D-01 0.151D+00 0.921D+00
 Coeff-En:   0.000D+00 0.000D+00 0.000D+00 0.100D+01
 Coeff:      0.249D-02-0.740D-01 0.150D+00 0.921D+00
 Gap=     0.511 Goal=   None    Shift=    0.000
 RMSDP=1.46D-04 MaxDP=1.40D-03 DE=-6.66D-05 OVMax= 0.00D+00

 Cycle   5  Pass 1  IDiag  1:
 E= -153.018889445940     Delta-E=       -0.000011201293 Rises=F Damp=F
 DIIS: error= 1.59D-04 at cycle   5 NSaved=   5.
 NSaved= 5 IEnMin= 5 EnMin= -153.018889445940     IErMin= 5 ErrMin= 1.59D-04
 ErrMax= 1.59D-04  0.00D+00 EMaxC= 1.00D-01 BMatC= 1.80D-07 BMatP= 5.30D-06
 IDIUse=3 WtCom= 9.98D-01 WtEn= 1.59D-03
 Coeff-Com: -0.610D-04 0.543D-02-0.840D-01-0.108D+00 0.119D+01
 Coeff-En:   0.000D+00 0.000D+00 0.000D+00 0.000D+00 0.100D+01
 Coeff:     -0.609D-04 0.542D-02-0.839D-01-0.108D+00 0.119D+01
 Gap=     0.511 Goal=   None    Shift=    0.000
 RMSDP=4.65D-05 MaxDP=5.56D-04 DE=-1.12D-05 OVMax= 0.00D+00

 Cycle   6  Pass 1  IDiag  1:
 E= -153.018890103741     Delta-E=       -0.000000657801 Rises=F Damp=F
 DIIS: error= 1.21D-05 at cycle   6 NSaved=   6.
 NSaved= 6 IEnMin= 6 EnMin= -153.018890103741     IErMin= 6 ErrMin= 1.21D-05
 ErrMax= 1.21D-05  0.00D+00 EMaxC= 1.00D-01 BMatC= 1.98D-09 BMatP= 1.80D-07
 IDIUse=1 WtCom= 1.00D+00 WtEn= 0.00D+00
 Coeff-Com: -0.165D-04-0.567D-03 0.231D-01 0.265D-01-0.381D+00 0.133D+01
 Coeff:     -0.165D-04-0.567D-03 0.231D-01 0.265D-01-0.381D+00 0.133D+01
 Gap=     0.511 Goal=   None    Shift=    0.000
 RMSDP=4.54D-06 MaxDP=4.65D-05 DE=-6.58D-07 OVMax= 0.00D+00

 Cycle   7  Pass 1  IDiag  1:
 E= -153.018890109889     Delta-E=       -0.000000006148 Rises=F Damp=F
 DIIS: error= 1.63D-06 at cycle   7 NSaved=   7.
 NSaved= 7 IEnMin= 7 EnMin= -153.018890109889     IErMin= 7 ErrMin= 1.63D-06
 ErrMax= 1.63D-06  0.00D+00 EMaxC= 1.00D-01 BMatC= 4.04D-11 BMatP= 1.98D-09
 IDIUse=1 WtCom= 1.00D+00 WtEn= 0.00D+00
 Coeff-Com:  0.817D-05 0.253D-03-0.111D-01-0.103D-01 0.174D+00-0.641D+00
 Coeff-Com:  0.149D+01
 Coeff:      0.817D-05 0.253D-03-0.111D-01-0.103D-01 0.174D+00-0.641D+00
 Coeff:      0.149D+01
 Gap=     0.511 Goal=   None    Shift=    0.000
 RMSDP=5.64D-07 MaxDP=3.74D-06 DE=-6.15D-09 OVMax= 0.00D+00

 Cycle   8  Pass 1  IDiag  1:
 E= -153.018890109981     Delta-E=       -0.000000000092 Rises=F Damp=F
 DIIS: error= 3.07D-07 at cycle   8 NSaved=   8.
 NSaved= 8 IEnMin= 8 EnMin= -153.018890109981     IErMin= 8 ErrMin= 3.07D-07
 ErrMax= 3.07D-07  0.00D+00 EMaxC= 1.00D-01 BMatC= 2.06D-12 BMatP= 4.04D-11
 IDIUse=1 WtCom= 1.00D+00 WtEn= 0.00D+00
 Coeff-Com: -0.297D-05-0.962D-04 0.416D-02 0.412D-02-0.664D-01 0.247D+00
 Coeff-Com: -0.743D+00 0.155D+01
 Coeff:     -0.297D-05-0.962D-04 0.416D-02 0.412D-02-0.664D-01 0.247D+00
 Coeff:     -0.743D+00 0.155D+01
 Gap=     0.511 Goal=   None    Shift=    0.000
 RMSDP=1.59D-07 MaxDP=1.10D-06 DE=-9.21D-11 OVMax= 0.00D+00

 Cycle   9  Pass 1  IDiag  1:
 E= -153.018890109986     Delta-E=       -0.000000000005 Rises=F Damp=F
 DIIS: error= 9.55D-09 at cycle   9 NSaved=   9.
 NSaved= 9 IEnMin= 9 EnMin= -153.018890109986     IErMin= 9 ErrMin= 9.55D-09
 ErrMax= 9.55D-09  0.00D+00 EMaxC= 1.00D-01 BMatC= 3.95D-15 BMatP= 2.06D-12
 IDIUse=1 WtCom= 1.00D+00 WtEn= 0.00D+00
 Coeff-Com:  0.371D-06 0.110D-04-0.495D-03-0.484D-03 0.788D-02-0.296D-01
 Coeff-Com:  0.934D-01-0.216D+00 0.115D+01
 Coeff:      0.371D-06 0.110D-04-0.495D-03-0.484D-03 0.788D-02-0.296D-01
 Coeff:      0.934D-01-0.216D+00 0.115D+01
 Gap=     0.511 Goal=   None    Shift=    0.000
 RMSDP=4.72D-09 MaxDP=4.63D-08 DE=-5.06D-12 OVMax= 0.00D+00

 Error on total polarization charges =  0.00355
 SCF Done:  E(RHF) =  -153.018890110     A.U. after    9 cycles
            NFock=  9  Conv=0.47D-08     -V/T= 2.0066
 KE= 1.520145022535D+02 PE=-5.652433112490D+02 EE= 1.557674367891D+02
 Leave Link  502 at Sat Jan 31 20:59:40 2026, MaxMem=   536870912 cpu:               2.3 elap:               0.6
 (Enter /root/g16/l801.exe)
 Range of M.O.s used for correlation:     1    26
 NBasis=    26 NAE=    15 NBE=    15 NFC=     0 NFV=     0
 NROrb=     26 NOA=    15 NOB=    15 NVA=    11 NVB=    11
 Leave Link  801 at Sat Jan 31 20:59:40 2026, MaxMem=   536870912 cpu:               0.1 elap:               0.0
 (Enter /root/g16/l1101.exe)
 Using compressed storage, NAtomX=    10.
 Will process     11 centers per pass.
 Leave Link 1101 at Sat Jan 31 20:59:40 2026, MaxMem=   536870912 cpu:               0.1 elap:               0.1
 (Enter /root/g16/l1102.exe)
 Symmetrizing basis deriv contribution to polar:
 IMax=3 JMax=2 DiffMx= 0.00D+00
 Leave Link 1102 at Sat Jan 31 20:59:41 2026, MaxMem=   536870912 cpu:               0.1 elap:               0.0
 (Enter /root/g16/l1110.exe)
 Forming Gx(P) for the SCF density, NAtomX=    10.
 Integral derivatives from FoFJK, PRISM(SPDF).
 Do as many integral derivatives as possible in FoFJK.
 G2DrvN: MDV=     536870076.
 G2DrvN: will do    11 centers at a time, making    1 passes.
 Calling FoFCou, ICntrl=  3107 FMM=F I1Cent=   0 AccDes= 0.00D+00.
 FoFJK:  IHMeth= 1 ICntrl=    3107 DoSepK=F KAlg= 0 I1Cent=           0 FoldK=F
 IRaf=         0 NMat=       1 IRICut=       1 DoRegI=T DoRafI=F ISym2E= 0 IDoP0=0 IntGTp=1.
 FoFCou: FMM=F IPFlag=           0 FMFlag=      100000 FMFlg1=           0
         NFxFlg=           0 DoJE=F BraDBF=F KetDBF=F FulRan=T
         wScrn=  0.000000 ICntrl=      3107 IOpCl=  0 I1Cent=           0 NGrid=           0
         NMat0=    1 NMatS0=      1 NMatT0=    0 NMatD0=    1 NMtDS0=    0 NMtDT0=    0
 Symmetry not used in FoFCou.
 NEqPCM:  Using equilibrium solvation (IEInf=0, Eps=  20.4930, EpsInf=   1.8463)
 G2PCM: DoFxE=T DoFxN=T DoGrad=T DoDP/DQ/DG/TGxP=FFFF NFrqRd=   0 IEInf=0 SqF1=F DoCFld=F IF1Alg=4.
 GePol: Maximum number of non-zero 1st derivatives   =     234
 End of G2Drv F.D. properties file   721 does not exist.
 End of G2Drv F.D. properties file   722 does not exist.
 End of G2Drv F.D. properties file   788 does not exist.
 Leave Link 1110 at Sat Jan 31 20:59:41 2026, MaxMem=   536870912 cpu:               2.6 elap:               0.7
 (Enter /root/g16/l1002.exe)
 Minotr:  Closed shell wavefunction.
          IDoAtm=1111111111
 NEqPCM:  Using equilibrium solvation (IEInf=0, Eps=  20.4930, EpsInf=   1.8463)
          Direct CPHF calculation.
          Differentiating once with respect to nuclear coordinates.
          Requested convergence is 1.0D-08 RMS, and 1.0D-07 maximum.
          Secondary convergence is 1.0D-12 RMS, and 1.0D-12 maximum.
          NewPWx=T KeepS1=F KeepF1=F KeepIn=T MapXYZ=F SortEE=F KeepMc=T.
 Keep R1 ints in memory in canonical form, NReq=3361337.
 FoFCou: FMM=F IPFlag=           0 FMFlag=           0 FMFlg1=           0
         NFxFlg=           0 DoJE=F BraDBF=F KetDBF=F FulRan=T
         wScrn=  0.000000 ICntrl=       600 IOpCl=  0 I1Cent=           0 NGrid=           0
         NMat0=    1 NMatS0=    351 NMatT0=    0 NMatD0=    1 NMtDS0=    0 NMtDT0=    0
 Symmetry not used in FoFCou.
 Two-electron integral symmetry not used.
          MDV=     536870912 using IRadAn=       1.
          Solving linear equations simultaneously, MaxMat=       0.
          There are    33 degrees of freedom in the 1st order CPHF.  IDoFFX=6 NUNeed=     0.
     27 vectors produced by pass  0 Test12= 5.00D-16 3.03D-09 XBig12= 3.29D-02 1.08D-01.
 AX will form    27 AO Fock derivatives at one time.
     27 vectors produced by pass  1 Test12= 5.00D-16 3.03D-09 XBig12= 2.74D-04 5.39D-03.
     27 vectors produced by pass  2 Test12= 5.00D-16 3.03D-09 XBig12= 8.62D-07 2.76D-04.
     27 vectors produced by pass  3 Test12= 5.00D-16 3.03D-09 XBig12= 4.62D-09 1.91D-05.
     24 vectors produced by pass  4 Test12= 5.00D-16 3.03D-09 XBig12= 1.04D-11 1.22D-06.
      9 vectors produced by pass  5 Test12= 5.00D-16 3.03D-09 XBig12= 5.12D-15 2.18D-08.
 InvSVY:  IOpt=1 It=  1 EMax= 1.78D-15
 Solved reduced A of dimension   141 with    27 vectors.
 End of Minotr F.D. properties file   721 does not exist.
 End of Minotr F.D. properties file   722 does not exist.
 End of Minotr F.D. properties file   788 does not exist.
 Leave Link 1002 at Sat Jan 31 20:59:42 2026, MaxMem=   536870912 cpu:               0.7 elap:               0.2
 (Enter /root/g16/l601.exe)
 Copying SCF densities to generalized density rwf, IOpCl= 0 IROHF=0.

 **********************************************************************

            Population analysis using the SCF density.

 **********************************************************************

 Orbital symmetries:
       Occupied  (A) (A) (A) (A) (A) (A) (A) (A) (A) (A) (A) (A)
                 (A) (A) (A)
       Virtual   (A) (A) (A) (A) (A) (A) (A) (A) (A) (A) (A)
 The electronic state is 1-A.
 Alpha  occ. eigenvalues --  -11.03183 -11.03173 -11.01781 -11.01779  -1.03975
 Alpha  occ. eigenvalues --   -0.94785  -0.77617  -0.71116  -0.59784  -0.59224
 Alpha  occ. eigenvalues --   -0.50004  -0.49988  -0.44113  -0.40297  -0.26774
 Alpha virt. eigenvalues --    0.24352   0.42061   0.58953   0.67701   0.69515
 Alpha virt. eigenvalues --    0.70664   0.71136   0.88187   0.92266   1.02364
 Alpha virt. eigenvalues --    1.09262
          Condensed to atoms (all electrons):
               1          2          3          4          5          6
     1  C    4.808273   0.596590  -0.030220   0.000785   0.394783   0.393036
     2  C    0.596590   4.767754   0.416382  -0.030216  -0.025012  -0.025813
     3  C   -0.030220   0.416382   4.767761   0.596569   0.001502  -0.004591
     4  C    0.000785  -0.030216   0.596569   4.808288  -0.000022   0.000032
     5  H    0.394783  -0.025012   0.001502  -0.000022   0.591804  -0.024238
     6  H    0.393036  -0.025813  -0.004591   0.000032  -0.024238   0.594466
     7  H   -0.027464   0.392659  -0.026679  -0.003585  -0.004744   0.002041
     8  H   -0.003586  -0.026681   0.392660  -0.027462   0.000007   0.000702
     9  H   -0.000022   0.001501  -0.025007   0.394783   0.000000  -0.000001
    10  H    0.000032  -0.004590  -0.025811   0.393046  -0.000001   0.000001
               7          8          9         10
     1  C   -0.027464  -0.003586  -0.000022   0.000032
     2  C    0.392659  -0.026681   0.001501  -0.004590
     3  C   -0.026679   0.392660  -0.025007  -0.025811
     4  C   -0.003585  -0.027462   0.394783   0.393046
     5  H   -0.004744   0.000007   0.000000  -0.000001
     6  H    0.002041   0.000702  -0.000001   0.000001
     7  H    0.600896   0.001671   0.000007   0.000702
     8  H    0.001671   0.600895  -0.004742   0.002041
     9  H    0.000007  -0.004742   0.591805  -0.024243
    10  H    0.000702   0.002041  -0.024243   0.594454
 Mulliken charges:
               1
     1  C   -0.132207
     2  C   -0.062575
     3  C   -0.062566
     4  C   -0.132219
     5  H    0.065920
     6  H    0.064367
     7  H    0.064496
     8  H    0.064495
     9  H    0.065918
    10  H    0.064371
 Sum of Mulliken charges =  -0.00000
 Mulliken charges with hydrogens summed into heavy atoms:
               1
     1  C   -0.001920
     2  C    0.001921
     3  C    0.001929
     4  C   -0.001930
 APT charges:
               1
     1  C   -0.610797
     2  C   -0.569293
     3  C   -0.569324
     4  C   -0.610798
     5  H    0.522272
     6  H    0.333600
     7  H    0.324219
     8  H    0.324209
     9  H    0.522296
    10  H    0.333617
 Sum of APT charges =  -0.00000
 APT charges with hydrogens summed into heavy atoms:
               1
     1  C    0.245075
     2  C   -0.245075
     3  C   -0.245115
     4  C    0.245115
 Electronic spatial extent (au):  <R**2>=            327.9122
 Charge=             -0.0000 electrons
 Dipole moment (field-independent basis, Debye):
    X=              0.0000    Y=              0.0000    Z=              0.0003  Tot=              0.0003
 Quadrupole moment (field-independent basis, Debye-Ang):
   XX=            -22.4810   YY=            -22.1279   ZZ=            -25.1353
   XY=              0.0958   XZ=              0.0009   YZ=              0.0009
 Traceless Quadrupole moment (field-independent basis, Debye-Ang):
   XX=              0.7670   YY=              1.1202   ZZ=             -1.8872
   XY=              0.0958   XZ=              0.0009   YZ=              0.0009
 Octapole moment (field-independent basis, Debye-Ang**2):
  XXX=             -0.0006  YYY=              0.0001  ZZZ=              0.0002  XYY=              0.0004
  XXY=             -0.0003  XXZ=             -0.0029  XZZ=              0.0000  YZZ=             -0.0000
  YYZ=              0.0022  XYZ=              0.0040
 Hexadecapole moment (field-independent basis, Debye-Ang**3):
 XXXX=           -322.1023 YYYY=            -57.8256 ZZZZ=            -20.3284 XXXY=             -5.0680
 XXXZ=             -0.0015 YYYX=              1.8834 YYYZ=             -0.0001 ZZZX=             -0.0015
 ZZZY=             -0.0013 XXYY=            -63.0258 XXZZ=            -63.1511 YYZZ=            -14.5931
 XXYZ=              0.0056 YYXZ=              0.0026 ZZXY=              0.1333
 N-N= 1.044424820964D+02 E-N=-5.652433112790D+02  KE= 1.520145022535D+02
  Exact polarizability:   0.000   0.000   0.000   0.000   0.000   0.000
 Approx polarizability:  40.931   6.788  19.434  -0.008   0.001   3.696
 No NMR shielding tensors so no spin-rotation constants.
 Leave Link  601 at Sat Jan 31 20:59:42 2026, MaxMem=   536870912 cpu:               0.2 elap:               0.1
 (Enter /root/g16/l701.exe)
 ... and contract with generalized density number  0.
 Compute integral second derivatives.
 D2PCM: PCM CHGder 2nd derivatives, FixD1E=F FixD2E=F DoIter=F DoCFld=F I1PDM=0
 GePol: Maximum number of non-zero 2nd derivatives   =     234
 Leave Link  701 at Sat Jan 31 20:59:42 2026, MaxMem=   536870912 cpu:               2.4 elap:               0.7
 (Enter /root/g16/l702.exe)
 L702 exits ... SP integral derivatives will be done elsewhere.
 Leave Link  702 at Sat Jan 31 20:59:42 2026, MaxMem=   536870912 cpu:               0.1 elap:               0.0
 (Enter /root/g16/l703.exe)
 Integral derivatives from FoFJK, PRISM(SPDF).
 Compute integral second derivatives, UseDBF=F ICtDFT=           0.
 Calling FoFJK, ICntrl=    100147 FMM=F ISym2X=0 I1Cent= 0 IOpClX= 0 NMat=1 NMatS=1 NMatT=0.
 FoFJK:  IHMeth= 1 ICntrl=  100147 DoSepK=F KAlg= 0 I1Cent=           0 FoldK=F
 IRaf=         0 NMat=       1 IRICut=       1 DoRegI=T DoRafI=F ISym2E= 0 IDoP0=0 IntGTp=1.
 FoFCou: FMM=F IPFlag=           0 FMFlag=      100000 FMFlg1=         800
         NFxFlg=           0 DoJE=F BraDBF=F KetDBF=F FulRan=T
         wScrn=  0.000000 ICntrl=    100147 IOpCl=  0 I1Cent=           0 NGrid=           0
         NMat0=    1 NMatS0=      1 NMatT0=    0 NMatD0=    1 NMtDS0=    0 NMtDT0=    0
 Symmetry not used in FoFCou.
 Leave Link  703 at Sat Jan 31 20:59:43 2026, MaxMem=   536870912 cpu:               0.3 elap:               0.1
 (Enter /root/g16/l716.exe)
 Dipole        = 1.84231170D-05 4.49831039D-07 9.91894856D-05
 Polarizability= 0.00000000D+00 0.00000000D+00 0.00000000D+00
                 0.00000000D+00 0.00000000D+00 0.00000000D+00
 ***** Axes restored to original set *****
 -------------------------------------------------------------------
 Center     Atomic                   Forces (Hartrees/Bohr)
 Number     Number              X              Y              Z
 -------------------------------------------------------------------
      1        6          -0.024230049   -0.010733744    0.000096283
      2        6           0.048327644   -0.006826711   -0.000004845
      3        6          -0.048419806    0.006781856    0.000111817
      4        6           0.024322798    0.010815060   -0.000047985
      5        1           0.003518148   -0.002373790    0.000056774
      6        1           0.000861967    0.003225888   -0.000120300
      7        1           0.001108901   -0.001568203   -0.000094341
      8        1          -0.001112226    0.001576894   -0.000020711
      9        1          -0.003515187    0.002385585    0.000019000
     10        1          -0.000862190   -0.003282836    0.000004308
 -------------------------------------------------------------------
 Cartesian Forces:  Max     0.048419806 RMS     0.014433413
 Force constants in Cartesian coordinates: 
                1             2             3             4             5 
      1  0.113858D+01
      2  0.791694D-01  0.956202D+00
      3 -0.354696D-03  0.101135D-02  0.156929D+00
      4 -0.647604D+00 -0.204349D+00  0.969621D-04  0.109816D+01
      5 -0.219561D+00 -0.271052D+00 -0.732878D-04  0.121453D+00  0.959798D+00
      6  0.122599D-03  0.162477D-04 -0.782204D-01 -0.110851D-03 -0.107093D-03
      7 -0.626959D-01  0.180809D-01  0.235830D-04 -0.290931D+00  0.139233D+00
      8 -0.123050D-01  0.213845D-01  0.214118D-04  0.139238D+00 -0.243070D+00
      9  0.455470D-04  0.407401D-05  0.929675D-02 -0.806388D-04  0.231417D-04
     10  0.779618D-02  0.762748D-02  0.000000D+00 -0.626882D-01 -0.123058D-01
     11  0.762683D-02 -0.382721D-02 -0.745951D-05  0.180794D-01  0.213842D-01
     12 -0.393622D-05  0.139962D-05  0.347967D-03 -0.653804D-05 -0.795607D-05
     13 -0.349091D+00  0.192389D+00  0.347147D-03 -0.181184D-01  0.259304D-01
     14  0.196368D+00 -0.223606D+00 -0.288108D-03 -0.220661D-01  0.164224D-01
     15  0.357739D-03 -0.272027D-03 -0.470871D-01 -0.293530D-04 -0.974850D-05
     16 -0.904699D-01 -0.518201D-01 -0.826163D-04  0.161302D-02 -0.408771D-01
     17 -0.557829D-01 -0.478073D+00 -0.659675D-03  0.465626D-02 -0.402509D-02
     18 -0.138577D-03 -0.752524D-03 -0.485986D-01  0.703346D-04  0.430905D-04
     19  0.765541D-03 -0.421251D-01 -0.317299D-04 -0.861040D-01 -0.476022D-01
     20  0.652392D-02 -0.406733D-02 -0.623027D-05 -0.484029D-01 -0.466155D+00
     21 -0.274709D-04 -0.881937D-05  0.796254D-02  0.569355D-04  0.119923D-03
     22  0.282764D-02  0.486951D-03  0.000000D+00  0.602120D-02  0.369519D-01
     23 -0.205604D-02  0.208977D-02  0.110649D-05 -0.789426D-02 -0.133892D-01
     24  0.106400D-05 -0.170376D-05 -0.881689D-03  0.297254D-05  0.132623D-04
     25 -0.303617D-03  0.675777D-03  0.124527D-05 -0.294020D-02 -0.261261D-02
     26 -0.627689D-03  0.146494D-02  0.120671D-05 -0.224380D-02 -0.308348D-02
     27 -0.278323D-05 -0.157292D-05 -0.233298D-03  0.481941D-05  0.211725D-05
     28  0.195517D-03 -0.135555D-03  0.000000D+00  0.259200D-02 -0.610092D-03
     29  0.644009D-03 -0.515696D-03  0.000000D+00  0.152864D-02  0.316965D-02
     30  0.000000D+00  0.357578D-05  0.484583D-03 -0.464321D-05 -0.344929D-05
                6             7             8             9            10 
      6  0.176959D+00
      7 -0.297156D-04  0.109795D+01
      8  0.110728D-04  0.121360D+00  0.959792D+00
      9 -0.765296D-01  0.501003D-04 -0.761701D-04  0.176976D+00
     10  0.958240D-05 -0.647396D+00 -0.219454D+00 -0.198268D-04  0.113837D+01
     11  0.512585D-05 -0.204247D+00 -0.271032D+00  0.203028D-04  0.790985D-01
     12  0.929267D-02 -0.443249D-04  0.249971D-04 -0.782401D-01  0.221620D-03
     13  0.154889D-04 -0.294040D-02 -0.261296D-02  0.160013D-04 -0.303606D-03
     14  0.322038D-05 -0.224375D-02 -0.308317D-02 -0.187169D-04 -0.627773D-03
     15  0.846087D-02  0.608448D-05  0.000000D+00  0.173908D-01 -0.627885D-05
     16 -0.258628D-04  0.259134D-02 -0.611262D-03 -0.162837D-05  0.195448D-03
     17 -0.199974D-04  0.152966D-02  0.316940D-02  0.229179D-04  0.644046D-03
     18  0.628707D-02 -0.103271D-04  0.272783D-05 -0.107767D-01  0.627247D-05
     19  0.299852D-04  0.602191D-02  0.369510D-01  0.672212D-05  0.282725D-02
     20  0.862401D-04 -0.789409D-02 -0.133877D-01 -0.350361D-05 -0.205560D-02
     21 -0.570795D-01 -0.182637D-04 -0.876507D-05  0.421475D-02  0.000000D+00
     22 -0.788788D-05 -0.861032D-01 -0.476179D-01  0.000000D+00  0.767129D-03
     23  0.128089D-05 -0.484124D-01 -0.466176D+00  0.350117D-04  0.652415D-02
     24  0.421523D-02 -0.135825D-04  0.159944D-04 -0.570716D-01  0.893266D-05
     25 -0.614467D-05 -0.181131D-01  0.259281D-01 -0.206502D-04 -0.349111D+00
     26  0.649750D-05 -0.220637D-01  0.164228D-01 -0.574781D-05  0.196364D+00
     27  0.173914D-01  0.249228D-04  0.562055D-05  0.845628D-02 -0.210594D-03
     28  0.280683D-05  0.161311D-02 -0.408764D-01  0.398736D-05 -0.904568D-01
     29 -0.259469D-05  0.465754D-02 -0.402056D-02 -0.130968D-05 -0.558144D-01
     30 -0.107770D-01  0.115232D-04  0.330093D-05  0.628376D-02 -0.107079D-04
               11            12            13            14            15 
     11  0.956311D+00
     12 -0.224041D-03  0.156923D+00
     13  0.676078D-03 -0.116498D-05  0.357728D+00
     14  0.146480D-02  0.000000D+00 -0.203239D+00  0.214371D+00
     15  0.000000D+00 -0.232723D-03 -0.353869D-03  0.295142D-03  0.307094D-01
     16 -0.135347D-03  0.000000D+00  0.107288D-01  0.313358D-01  0.302707D-04
     17 -0.515180D-03  0.000000D+00 -0.121076D-01 -0.786742D-02 -0.933825D-05
     18  0.177858D-05  0.484265D-03 -0.146005D-04 -0.648965D-05  0.356463D-02
     19  0.486068D-03  0.000000D+00  0.223073D-02  0.731338D-03 -0.532613D-05
     20  0.208965D-02  0.000000D+00 -0.239504D-03  0.209528D-02 -0.405255D-05
     21  0.215245D-05 -0.881524D-03 -0.801755D-05  0.137845D-04 -0.112525D-01
     22 -0.421220D-01  0.667028D-05  0.254176D-03 -0.265395D-03  0.000000D+00
     23 -0.406395D-02 -0.108255D-05 -0.429468D-03  0.276734D-03  0.000000D+00
     24  0.900098D-05  0.795832D-02  0.000000D+00  0.000000D+00 -0.248152D-03
     25  0.192397D+00 -0.173313D-03 -0.442469D-03 -0.960808D-04  0.121517D-05
     26 -0.223598D+00  0.129512D-03 -0.961695D-04 -0.347440D-03 -0.143405D-05
     27  0.136676D-03 -0.470811D-01 -0.169878D-05  0.234343D-05 -0.198577D-02
     28 -0.518590D-01  0.000000D+00 -0.454139D-04  0.103066D-03  0.000000D+00
     29 -0.478213D+00  0.792612D-04 -0.270530D-03  0.274161D-03  0.125605D-05
     30  0.569406D-04 -0.485712D-01  0.000000D+00  0.000000D+00  0.680532D-03
               16            17            18            19            20 
     16  0.810195D-01
     17  0.626549D-01  0.488117D+00
     18  0.742614D-04  0.699890D-03  0.315502D-01
     19 -0.557789D-02 -0.112304D-02  0.130503D-04  0.851435D-01
     20 -0.848890D-03 -0.447676D-03  0.117188D-04  0.510579D-01  0.480072D+00
     21  0.527980D-05 -0.315818D-04  0.170805D-01 -0.100689D-04 -0.846961D-04
     22 -0.297056D-04 -0.179527D-03  0.000000D+00 -0.553170D-02  0.206838D-02
     23  0.220261D-03 -0.156654D-03  0.000000D+00  0.206862D-02 -0.318728D-03
     24  0.000000D+00  0.000000D+00 -0.742843D-04 -0.194137D-05  0.106622D-05
     25 -0.454015D-04 -0.270549D-03  0.000000D+00  0.254227D-03 -0.429494D-03
     26  0.103005D-03  0.274052D-03  0.000000D+00 -0.265341D-03  0.276634D-03
     27  0.000000D+00 -0.155403D-05  0.680649D-03  0.000000D+00  0.000000D+00
     28 -0.252448D-04 -0.212954D-04  0.000000D+00 -0.295701D-04  0.220286D-03
     29 -0.212732D-04 -0.475765D-03  0.000000D+00 -0.179350D-03 -0.156799D-03
     30  0.000000D+00  0.000000D+00 -0.197740D-03  0.000000D+00  0.000000D+00
               21            22            23            24            25 
     21  0.372753D-01
     22  0.000000D+00  0.851421D-01
     23 -0.208225D-05  0.510681D-01  0.480091D+00
     24  0.300283D-02  0.000000D+00 -0.368223D-04  0.372697D-01
     25  0.000000D+00  0.223062D-02 -0.240099D-03  0.530939D-05  0.357742D+00
     26  0.000000D+00  0.732198D-03  0.209484D-02 -0.547914D-05 -0.203244D+00
     27 -0.248165D-03  0.166063D-05  0.000000D+00 -0.112517D-01  0.188391D-03
     28  0.000000D+00 -0.557831D-02 -0.848816D-03 -0.248635D-05  0.107289D-01
     29  0.000000D+00 -0.112273D-02 -0.448201D-03  0.497008D-05 -0.121082D-01
     30 -0.742688D-04 -0.107121D-05  0.290552D-05  0.170814D-01  0.426778D-05
               26            27            28            29            30 
     26  0.214366D+00
     27 -0.139966D-03  0.307051D-01
     28  0.313415D-01 -0.399249D-05  0.810058D-01
     29 -0.787022D-02 -0.365941D-05  0.626862D-01  0.488257D+00
     30  0.147915D-04  0.356657D-02  0.000000D+00 -0.771540D-04  0.315233D-01
 FormGI is forming the generalized inverse of G from B-inverse, IUseBI=4.
 Force constants in internal coordinates: 
                1             2             3             4             5 
      1  0.818299D+00
      2 -0.184015D-02  0.501555D+00
      3 -0.128583D-02 -0.671341D-02  0.497539D+00
      4  0.321160D-01  0.892021D-04 -0.529243D-03  0.508630D+00
      5 -0.161350D-02  0.120887D-02  0.817475D-03 -0.279843D-02  0.486564D+00
      6 -0.112850D-01  0.480681D-03 -0.616611D-04  0.321115D-01 -0.855355D-03
      7 -0.855451D-03 -0.460606D-03 -0.142749D-03 -0.279875D-02 -0.122273D-03
      8  0.480751D-03  0.320557D-03  0.389711D-03  0.892415D-04 -0.460579D-03
      9 -0.614905D-04  0.389769D-03  0.470162D-03 -0.528820D-03 -0.142852D-03
     10  0.124263D-01  0.380438D-02 -0.106779D-01  0.477599D-02 -0.343101D-02
     11  0.120748D-01 -0.103863D-01  0.417327D-02 -0.486763D-02  0.319253D-02
     12 -0.245011D-01  0.658190D-02  0.650465D-02  0.916464D-04  0.238480D-03
     13  0.200788D-01  0.442015D-02 -0.520908D-02  0.206096D-01 -0.111310D-01
     14  0.965772D-02 -0.381872D-02  0.451146D-02 -0.290755D-01  0.536030D-02
     15 -0.297365D-01 -0.601423D-03  0.697619D-03  0.846588D-02  0.577068D-02
     16  0.511333D-02 -0.419895D-03 -0.141004D-02  0.206025D-01 -0.515095D-02
     17 -0.558919D-02 -0.222706D-03  0.872789D-03  0.847041D-02  0.394463D-02
     18  0.475864D-03  0.642600D-03  0.537246D-03 -0.290730D-01  0.120632D-02
     19  0.568016D-03  0.784504D-04 -0.732207D-04  0.477571D-02 -0.200782D-03
     20 -0.371427D-03  0.000000D+00 -0.108869D-04 -0.486757D-02  0.343448D-03
     21 -0.196589D-03 -0.782574D-04  0.841076D-04  0.918542D-04 -0.142666D-03
     22 -0.186030D-04  0.000000D+00 -0.120260D-05  0.129197D-05 -0.346050D-05
     23 -0.143448D-04  0.000000D+00  0.000000D+00  0.487407D-05 -0.234665D-05
     24 -0.708910D-04 -0.765160D-05 -0.647162D-05  0.290668D-05 -0.711839D-05
     25 -0.666328D-04 -0.673007D-05 -0.528211D-05  0.648878D-05 -0.600455D-05
     26 -0.104216D-05  0.000000D+00  0.000000D+00 -0.287427D-05  0.000000D+00
     27  0.355850D-05  0.000000D+00  0.110534D-05  0.000000D+00  0.000000D+00
     28 -0.700804D-05  0.000000D+00  0.000000D+00 -0.436544D-05  0.000000D+00
     29 -0.240738D-05  0.000000D+00  0.000000D+00 -0.218413D-05  0.000000D+00
     30  0.563604D-05  0.000000D+00  0.000000D+00  0.319771D-05  0.118781D-05
     31  0.417678D-05  0.000000D+00  0.000000D+00  0.000000D+00  0.000000D+00
     32  0.142276D-05  0.000000D+00  0.000000D+00 -0.305977D-05  0.000000D+00
     33  0.000000D+00  0.000000D+00  0.000000D+00 -0.680985D-05  0.000000D+00
                6             7             8             9            10 
      6  0.818030D+00
      7 -0.161413D-02  0.486585D+00
      8 -0.184091D-02  0.120908D-02  0.501566D+00
      9 -0.128753D-02  0.818061D-03 -0.671335D-02  0.497683D+00
     10  0.567944D-03 -0.200653D-03  0.783857D-04 -0.733393D-04  0.105769D+00
     11 -0.371381D-03  0.343330D-03  0.000000D+00 -0.108378D-04 -0.573077D-01
     12 -0.196562D-03 -0.142677D-03 -0.782002D-04  0.841778D-04 -0.484616D-01
     13  0.511316D-02 -0.515188D-02 -0.420050D-03 -0.141039D-02  0.141707D-01
     14  0.475482D-03  0.120668D-02  0.642673D-03  0.537635D-03 -0.130084D-01
     15 -0.558864D-02  0.394520D-02 -0.222623D-03  0.872758D-03 -0.116228D-02
     16  0.200745D-01 -0.111298D-01  0.441961D-02 -0.520787D-02  0.249948D-02
     17 -0.297312D-01  0.577071D-02 -0.601644D-03  0.697186D-03 -0.117871D-02
     18  0.965673D-02  0.535909D-02 -0.381796D-02  0.451069D-02 -0.132077D-02
     19  0.124223D-01 -0.343023D-02  0.380221D-02 -0.106776D-01  0.968168D-03
     20  0.120744D-01  0.319206D-02 -0.103867D-01  0.417139D-02 -0.571101D-03
     21 -0.244967D-01  0.238178D-03  0.658449D-02  0.650618D-02 -0.397067D-03
     22 -0.447428D-05  0.000000D+00  0.000000D+00  0.000000D+00 -0.170670D-04
     23 -0.421234D-05  0.000000D+00  0.000000D+00  0.000000D+00 -0.163540D-04
     24 -0.555882D-05  0.000000D+00  0.000000D+00  0.000000D+00  0.352089D-04
     25 -0.529689D-05  0.000000D+00  0.000000D+00  0.000000D+00  0.359219D-04
     26 -0.106838D-04  0.129600D-05 -0.142671D-05 -0.108111D-05  0.000000D+00
     27  0.407549D-05  0.282035D-05  0.000000D+00  0.000000D+00  0.000000D+00
     28 -0.112148D-04  0.125401D-05 -0.112501D-05  0.000000D+00  0.000000D+00
     29  0.354444D-05  0.277835D-05  0.000000D+00  0.000000D+00  0.000000D+00
     30 -0.148344D-04  0.000000D+00 -0.179163D-05 -0.202899D-05  0.000000D+00
     31  0.179953D-04  0.230118D-05  0.293801D-05  0.208259D-05  0.000000D+00
     32 -0.263623D-04 -0.178309D-05 -0.362840D-05 -0.311274D-05  0.000000D+00
     33  0.646741D-05  0.000000D+00  0.110125D-05  0.000000D+00  0.000000D+00
               11            12            13            14            15 
     11  0.106866D+00
     12 -0.495580D-01  0.980196D-01
     13 -0.120395D-01 -0.213123D-02  0.141855D+00
     14  0.144026D-01 -0.139412D-02 -0.699439D-01  0.117522D+00
     15 -0.236307D-02  0.352535D-02 -0.719114D-01 -0.475786D-01  0.119490D+00
     16 -0.112248D-02 -0.137700D-02  0.184299D-01 -0.241246D-02 -0.160174D-01
     17  0.560183D-03  0.618523D-03 -0.160166D-01 -0.164319D-02  0.176598D-01
     18  0.562294D-03  0.758479D-03 -0.241326D-02  0.405565D-02 -0.164239D-02
     19 -0.571074D-03 -0.397093D-03  0.249929D-02 -0.132066D-02 -0.117863D-02
     20  0.359964D-03  0.211136D-03 -0.112245D-02  0.562388D-03  0.560061D-03
     21  0.211109D-03  0.185958D-03 -0.137684D-02  0.758271D-03  0.618567D-03
     22  0.465325D-04 -0.591688D-05 -0.255497D-04  0.235130D-04  0.118497D-05
     23  0.423578D-04 -0.605895D-05  0.175477D-04 -0.227516D-04  0.573705D-05
     24 -0.720281D-04  0.164256D-04 -0.198002D-04  0.152807D-04  0.401492D-05
     25 -0.762028D-04  0.162835D-04  0.232972D-04 -0.309838D-04  0.856700D-05
     26 -0.239786D-05  0.000000D+00  0.121359D-04 -0.132382D-04  0.168784D-05
     27 -0.204175D-05  0.000000D+00  0.166696D-04 -0.164523D-04  0.000000D+00
     28  0.000000D+00  0.115211D-05 -0.288015D-04  0.227575D-04  0.529736D-05
     29  0.108868D-05  0.000000D+00 -0.242678D-04  0.195434D-04  0.405736D-05
     30  0.000000D+00 -0.108928D-05  0.597666D-05 -0.488807D-05  0.000000D+00
     31  0.000000D+00  0.000000D+00  0.000000D+00  0.000000D+00  0.000000D+00
     32  0.000000D+00  0.000000D+00  0.247950D-05  0.000000D+00 -0.145587D-05
     33  0.000000D+00  0.000000D+00 -0.360976D-05  0.335186D-05  0.000000D+00
               16            17            18            19            20 
     16  0.141842D+00
     17 -0.719080D-01  0.119489D+00
     18 -0.699341D-01 -0.475810D-01  0.117515D+00
     19  0.141733D-01 -0.116269D-02 -0.130106D-01  0.105761D+00
     20 -0.120432D-01 -0.236169D-02  0.144049D-01 -0.572986D-01  0.106859D+00
     21 -0.213008D-02  0.352438D-02 -0.139431D-02 -0.484624D-01 -0.495603D-01
     22  0.000000D+00  0.000000D+00  0.000000D+00  0.182751D-05  0.000000D+00
     23  0.000000D+00  0.000000D+00  0.000000D+00  0.000000D+00  0.000000D+00
     24  0.000000D+00  0.000000D+00  0.000000D+00  0.000000D+00  0.000000D+00
     25  0.000000D+00  0.000000D+00  0.000000D+00  0.000000D+00  0.000000D+00
     26 -0.712782D-05  0.892920D-05 -0.295087D-05 -0.200805D-05  0.126723D-05
     27 -0.571695D-05  0.000000D+00  0.756340D-05 -0.222936D-05  0.000000D+00
     28 -0.727759D-05  0.959018D-05 -0.361848D-05  0.000000D+00  0.000000D+00
     29 -0.586672D-05  0.000000D+00  0.689579D-05  0.000000D+00  0.000000D+00
     30  0.189917D-05  0.563782D-05 -0.586469D-05 -0.172421D-04  0.000000D+00
     31  0.389998D-05  0.302329D-05 -0.593286D-05  0.689089D-05  0.888851D-05
     32  0.000000D+00  0.000000D+00  0.000000D+00 -0.183390D-04  0.165982D-05
     33  0.137729D-05 -0.360357D-05  0.000000D+00  0.579398D-05  0.109929D-04
               21            22            23            24            25 
     21  0.980228D-01
     22  0.000000D+00  0.309882D-01
     23  0.000000D+00  0.199467D-01  0.268590D-01
     24  0.000000D+00  0.157254D-02 -0.496740D-02  0.270471D-01
     25  0.000000D+00 -0.946902D-02  0.194492D-02  0.205072D-01  0.319211D-01
     26  0.149988D-05 -0.375757D-02  0.383271D-02 -0.191918D-02  0.567110D-02
     27  0.000000D+00 -0.574185D-02  0.288107D-02 -0.307786D-02  0.554506D-02
     28  0.000000D+00  0.686315D-02 -0.281614D-02  0.437149D-02 -0.530780D-02
     29  0.000000D+00  0.487887D-02 -0.376778D-02  0.321281D-02 -0.543384D-02
     30  0.554302D-05 -0.327513D-02 -0.121207D-02 -0.187599D-02  0.187074D-03
     31 -0.526288D-05 -0.187583D-02 -0.671222D-03 -0.108479D-02  0.119810D-03
     32  0.639436D-05 -0.121218D-02 -0.222698D-03 -0.671371D-03  0.318112D-03
     33 -0.441155D-05  0.187124D-03  0.318148D-03  0.119824D-03  0.250848D-03
               26            27            28            29            30 
     26  0.848782D-02
     27  0.118788D-02  0.104974D-01
     28  0.118683D-02 -0.710639D-02  0.104972D-01
     29 -0.611311D-02  0.220315D-02  0.220398D-02  0.105202D-01
     30 -0.375703D-02  0.686304D-02 -0.574147D-02  0.487861D-02  0.309850D-01
     31 -0.191864D-02  0.437111D-02 -0.307733D-02  0.321242D-02  0.157381D-02
     32  0.383231D-02 -0.281557D-02  0.288054D-02 -0.376734D-02  0.199439D-01
     33  0.567070D-02 -0.530750D-02  0.554467D-02 -0.543353D-02 -0.946729D-02
               31            32            33 
     31  0.270440D-01
     32 -0.496530D-02  0.268554D-01
     33  0.205049D-01  0.194613D-02  0.319184D-01
 Leave Link  716 at Sat Jan 31 20:59:43 2026, MaxMem=   536870912 cpu:               0.2 elap:               0.1
 (Enter /root/g16/l103.exe)

 GradGradGradGradGradGradGradGradGradGradGradGradGradGradGradGradGradGrad
 Berny optimization.
 Red2BG is reusing G-inverse.
 Internal  Forces:  Max     0.034760424 RMS     0.008298485
 Search for a local minimum.
 Step number   1 out of a maximum of   43
 All quantities printed in internal units (Hartrees-Bohrs-Radians)
 RMS Force = .82985D-02 SwitMx=.10000D-02 MixMth= 1
 Mixed Optimization -- RFO/linear search
 Second derivative matrix not updated -- analytic derivatives used.
 ITU=  0
     Eigenvalues ---    0.00647   0.03075   0.03370   0.04178   0.04676
     Eigenvalues ---    0.05588   0.05828   0.14141   0.14489   0.14508
     Eigenvalues ---    0.14536   0.15650   0.18178   0.20072   0.24233
     Eigenvalues ---    0.48638   0.48658   0.49272   0.49389   0.50642
     Eigenvalues ---    0.50747   0.51336   0.81848   0.83211
 RFO step:  Lambda=-4.01560525D-03 EMin= 6.46831446D-03
 Linear search not attempted -- first point.
 Iteration  1 RMS(Cart)=  0.01602076 RMS(Int)=  0.00009653
 Iteration  2 RMS(Cart)=  0.00013131 RMS(Int)=  0.00000009
 Iteration  3 RMS(Cart)=  0.00000002 RMS(Int)=  0.00000008
 ITry= 1 IFail=0 DXMaxC= 4.38D-02 DCOld= 1.00D+10 DXMaxT= 3.00D-01 DXLimC= 3.00D+00 Rises=F
 Variable       Old X    -DE/DX   Delta X   Delta X   Delta X     New X
                                 (Linear)    (Quad)   (Total)
    R1        2.51182  -0.02213   0.00000  -0.03084  -0.03084   2.48098
    R2        2.03476   0.00424   0.00000   0.00858   0.00858   2.04335
    R3        2.03753   0.00332   0.00000   0.00681   0.00681   2.04434
    R4        2.73601   0.03476   0.00000   0.07173   0.07173   2.80774
    R5        2.04612   0.00141   0.00000   0.00333   0.00333   2.04944
    R6        2.51194  -0.02223   0.00000  -0.03097  -0.03097   2.48097
    R7        2.04610   0.00142   0.00000   0.00334   0.00334   2.04944
    R8        2.03475   0.00425   0.00000   0.00859   0.00859   2.04335
    R9        2.03742   0.00338   0.00000   0.00692   0.00692   2.04434
    A1        2.13006  -0.00014   0.00000  -0.00028  -0.00028   2.12978
    A2        2.12110   0.00044   0.00000   0.00774   0.00774   2.12884
    A3        2.03202  -0.00030   0.00000  -0.00746  -0.00746   2.02456
    A4        2.15964   0.00184   0.00000   0.00505   0.00505   2.16469
    A5        2.09809  -0.00225   0.00000   0.00063   0.00063   2.09873
    A6        2.02545   0.00041   0.00000  -0.00569  -0.00569   2.01976
    A7        2.15965   0.00183   0.00000   0.00505   0.00505   2.16470
    A8        2.02543   0.00042   0.00000  -0.00567  -0.00567   2.01976
    A9        2.09811  -0.00225   0.00000   0.00062   0.00062   2.09873
   A10        2.13011  -0.00015   0.00000  -0.00033  -0.00033   2.12978
   A11        2.12112   0.00044   0.00000   0.00773   0.00773   2.12885
   A12        2.03195  -0.00029   0.00000  -0.00740  -0.00740   2.02456
    D1       -3.14019  -0.00005   0.00000  -0.00129  -0.00129  -3.14148
    D2        0.00131  -0.00005   0.00000  -0.00123  -0.00123   0.00008
    D3        0.00240  -0.00011   0.00000  -0.00222  -0.00222   0.00018
    D4       -3.13929  -0.00011   0.00000  -0.00216  -0.00216  -3.14145
    D5        3.14140  -0.00001   0.00000   0.00007   0.00007   3.14147
    D6       -0.00037   0.00000   0.00000   0.00026   0.00026  -0.00012
    D7       -0.00010  -0.00001   0.00000   0.00001   0.00001  -0.00009
    D8        3.14131   0.00001   0.00000   0.00020   0.00020   3.14151
    D9       -3.14115  -0.00001   0.00000  -0.00039  -0.00039  -3.14154
   D10       -0.00007   0.00001   0.00000   0.00009   0.00009   0.00002
   D11        0.00063  -0.00002   0.00000  -0.00059  -0.00059   0.00005
   D12       -3.14147  -0.00000   0.00000  -0.00010  -0.00010  -3.14157
         Item               Value     Threshold  Converged?
 Maximum Force            0.034760     0.000450     NO 
 RMS     Force            0.008298     0.000300     NO 
 Maximum Displacement     0.043753     0.001800     NO 
 RMS     Displacement     0.016044     0.001200     NO 
 Predicted change in Energy=-2.023221D-03
 Lowest energy point so far.  Saving SCF results.
 GradGradGradGradGradGradGradGradGradGradGradGradGradGradGradGradGradGrad

 Leave Link  103 at Sat Jan 31 20:59:43 2026, MaxMem=   536870912 cpu:               0.2 elap:               0.1
 (Enter /root/g16/l202.exe)
                          Input orientation:                          
 ---------------------------------------------------------------------
 Center     Atomic      Atomic             Coordinates (Angstroms)
 Number     Number       Type             X           Y           Z
 ---------------------------------------------------------------------
      1          6           0        1.831589    0.111312    0.000091
      2          6           0        0.623818   -0.403411    0.000055
      3          6           0       -0.623828    0.403408    0.000094
      4          6           0       -1.831596   -0.111308   -0.000072
      5          1           0        2.718521   -0.507191   -0.000046
      6          1           0        1.998794    1.180130    0.000315
      7          1           0        0.488536   -1.479459   -0.000040
      8          1           0       -0.488542    1.479456    0.000269
      9          1           0       -2.718526    0.507197   -0.000081
     10          1           0       -1.998807   -1.180124   -0.000228
 ---------------------------------------------------------------------
                    Distance matrix (angstroms):
                    1          2          3          4          5
     1  C    0.000000
     2  C    1.312878   0.000000
     3  C    2.472729   1.485792   0.000000
     4  C    3.669943   2.472728   1.312873   0.000000
     5  H    1.081293   2.097272   3.464172   4.567306   0.000000
     6  H    1.081818   2.097180   2.735222   4.042239   1.834410
     7  H    2.081908   1.084519   2.186903   2.693483   2.432722
     8  H    2.693479   2.186901   1.084519   2.081904   3.772535
     9  H    4.567304   3.464169   2.097268   1.081293   5.530864
    10  H    4.042244   2.735224   2.097175   1.081817   4.765084
                    6          7          8          9         10
     6  H    0.000000
     7  H    3.058479   0.000000
     8  H    2.505282   3.116065   0.000000
     9  H    4.765075   3.772539   2.432717   0.000000
    10  H    4.642372   2.505290   3.058475   1.834407   0.000000
 Stoichiometry    C4H6
 Framework group  C1[X(C4H6)]
 Deg. of freedom    24
 Full point group                 C1      NOp   1
 RotChk:  IX=1 Diff= 8.98D-03
 Largest Abelian subgroup         C1      NOp   1
 Largest concise Abelian subgroup C1      NOp   1
                         Standard orientation:                         
 ---------------------------------------------------------------------
 Center     Atomic      Atomic             Coordinates (Angstroms)
 Number     Number       Type             X           Y           Z
 ---------------------------------------------------------------------
      1          6           0        1.831480    0.113158    0.000052
      2          6           0        0.624229   -0.402782    0.000015
      3          6           0       -0.624230    0.402779    0.000054
      4          6           0       -1.831478   -0.113156   -0.000112
      5          1           0        2.719035   -0.504449   -0.000086
      6          1           0        1.997607    1.182145    0.000275
      7          1           0        0.490032   -1.478966   -0.000080
      8          1           0       -0.490030    1.478962    0.000229
      9          1           0       -2.719032    0.504455   -0.000121
     10          1           0       -1.997612   -1.182140   -0.000268
 ---------------------------------------------------------------------
 Rotational constants (GHZ):          42.3380067           4.4610291           4.0357900
 Leave Link  202 at Sat Jan 31 20:59:43 2026, MaxMem=   536870912 cpu:               0.0 elap:               0.0
 (Enter /root/g16/l301.exe)
 Standard basis: STO-3G (5D, 7F)
 Ernie: Thresh=  0.10000D-02 Tol=  0.10000D-05 Strict=F.
 There are    26 symmetry adapted cartesian basis functions of A   symmetry.
 There are    26 symmetry adapted basis functions of A   symmetry.
    26 basis functions,    78 primitive gaussians,    26 cartesian basis functions
    15 alpha electrons       15 beta electrons
       nuclear repulsion energy       104.1854853787 Hartrees.
 IExCor=    0 DFT=F Ex=HF Corr=None ExCW=0 ScaHFX=  1.000000
 ScaDFX=  1.000000  1.000000  1.000000  1.000000 ScalE2=  1.000000  1.000000
 IRadAn=      5 IRanWt=     -1 IRanGd=            0 ICorTp=0 IEmpDi=  4
 NAtoms=   10 NActive=   10 NUniq=   10 SFac= 1.00D+00 NAtFMM=   60 NAOKFM=F Big=F
 Integral buffers will be    131072 words long.
 Raffenetti 1 integral format.
 Two-electron integral symmetry is turned on.
 ------------------------------------------------------------------------------
 Polarizable Continuum Model (PCM)
 =================================
 Model                : PCM.
 Atomic radii         : UFF (Universal Force Field).
 Polarization charges : Total charges.
 Charge compensation  : None.
 Solution method      : Matrix inversion.
 Cavity type          : Scaled VdW (van der Waals Surface) (Alpha=1.100).
 Cavity algorithm     : GePol (No added spheres)
                        Default sphere list used, NSphG=   10.
                        Lebedev-Laikov grids with approx.  5.0 points / Ang**2.
                        Smoothing algorithm: York/Karplus (Gamma=1.0000).
                        Polarization charges: spherical gaussians, with
                                              point-specific exponents (IZeta= 3).
                        Self-potential: point-specific (ISelfS= 7).
                        Self-field    : sphere-specific E.n sum rule (ISelfD= 2).
 1st derivatives      : Analytical E(r).r(x)/FMM algorithm (CHGder, D1EAlg=3).
                        Cavity 1st derivative terms included.
 Solvent              : Acetone, Eps=  20.493000 Eps(inf)=   1.846337
 ------------------------------------------------------------------------------
 Spheres list:
 ISph  on   Nord     Re0    Alpha      Xe            Ye            Ze
    1   C      1    1.9255  1.100      1.831480      0.113158      0.000052
    2   C      2    1.9255  1.100      0.624229     -0.402782      0.000015
    3   C      3    1.9255  1.100     -0.624230      0.402779      0.000054
    4   C      4    1.9255  1.100     -1.831478     -0.113156     -0.000112
    5   H      5    1.4430  1.100      2.719035     -0.504449     -0.000086
    6   H      6    1.4430  1.100      1.997607      1.182145      0.000275
    7   H      7    1.4430  1.100      0.490032     -1.478966     -0.000080
    8   H      8    1.4430  1.100     -0.490030      1.478962      0.000229
    9   H      9    1.4430  1.100     -2.719032      0.504455     -0.000121
   10   H     10    1.4430  1.100     -1.997612     -1.182140     -0.000268
 ------------------------------------------------------------------------------
 GePol: Number of generator spheres                  =      10
 GePol: Total number of spheres                      =      10
 GePol: Number of exposed spheres                    =      10 (100.00%)
 GePol: Number of points                             =     920
 GePol: Average weight of points                     =       0.14
 GePol: Minimum weight of points                     =   0.21D-11
 GePol: Maximum weight of points                     =    0.20577
 GePol: Number of points with low weight             =      62
 GePol: Fraction of low-weight points (<1% of avg)   =       6.74%
 GePol: Cavity surface area                          =    128.200 Ang**2
 GePol: Cavity volume                                =    112.283 Ang**3
 Leave Link  301 at Sat Jan 31 20:59:43 2026, MaxMem=   536870912 cpu:               0.1 elap:               0.0
 (Enter /root/g16/l302.exe)
 NPDir=0 NMtPBC=     1 NCelOv=     1 NCel=       1 NClECP=     1 NCelD=      1
         NCelK=      1 NCelE2=     1 NClLst=     1 CellRange=     0.0.
 One-electron integrals computed using PRISM.
 One-electron integral symmetry used in STVInt
 NBasis=    26 RedAO= T EigKep=  1.78D-01  NBF=    26
 NBsUse=    26 1.00D-06 EigRej= -1.00D+00 NBFU=    26
 Leave Link  302 at Sat Jan 31 20:59:43 2026, MaxMem=   536870912 cpu:               0.2 elap:               0.0
 (Enter /root/g16/l303.exe)
 DipDrv:  MaxL=1.
 Leave Link  303 at Sat Jan 31 20:59:43 2026, MaxMem=   536870912 cpu:               0.1 elap:               0.0
 (Enter /root/g16/l401.exe)
 Initial guess from the checkpoint file:  "conf_000.chk"
 B after Tr=    -0.000000    0.000000   -0.000000
         Rot=    0.999996   -0.000035    0.000014   -0.002759 Ang=  -0.32 deg.
 Guess basis will be translated and rotated to current coordinates.
 JPrj=2 DoOrth=T DoCkMO=T.
 Generating alternative initial guess.
 ExpMin= 1.69D-01 ExpMax= 7.16D+01 ExpMxC= 7.16D+01 IAcc=2 IRadAn=         4 AccDes= 0.00D+00
 Harris functional with IExCor=  205 and IRadAn=       4 diagonalized for initial guess.
 HarFok:  IExCor=  205 AccDes= 0.00D+00 IRadAn=         4 IDoV= 1 UseB2=F ITyADJ=14
 ICtDFT=  3500011 ScaDFX=  1.000000  1.000000  1.000000  1.000000
 FoFCou: FMM=F IPFlag=           0 FMFlag=      100000 FMFlg1=           0
         NFxFlg=           0 DoJE=T BraDBF=F KetDBF=T FulRan=T
         wScrn=  0.000000 ICntrl=       500 IOpCl=  0 I1Cent=   200000004 NGrid=           0
         NMat0=    1 NMatS0=      1 NMatT0=    0 NMatD0=    1 NMtDS0=    0 NMtDT0=    0
 Petite list used in FoFCou.
 Harris En= -153.297209251486    
 Leave Link  401 at Sat Jan 31 20:59:43 2026, MaxMem=   536870912 cpu:               0.4 elap:               0.1
 (Enter /root/g16/l502.exe)
 Keep R1 ints in memory in canonical form, NReq=1542368.
 FoFCou: FMM=F IPFlag=           0 FMFlag=           0 FMFlg1=           0
         NFxFlg=           0 DoJE=F BraDBF=F KetDBF=F FulRan=T
         wScrn=  0.000000 ICntrl=       600 IOpCl=  0 I1Cent=           0 NGrid=           0
         NMat0=    1 NMatS0=    351 NMatT0=    0 NMatD0=    1 NMtDS0=    0 NMtDT0=    0
 Symmetry not used in FoFCou.
 Two-electron integral symmetry not used.
 Closed shell SCF:
 Using DIIS extrapolation, IDIIS=  1040.
 NGot=   536870912 LenX=   536806970 LenY=   536805853
 Requested convergence on RMS density matrix=1.00D-08 within 128 cycles.
 Requested convergence on MAX density matrix=1.00D-06.
 Requested convergence on             energy=1.00D-06.
 No special actions if energy rises.

 Cycle   1  Pass 1  IDiag  1:
 Inv3:  Mode=1 IEnd=     2539200.
 Iteration    1 A*A^-1 deviation from unit magnitude is 3.33D-15 for     80.
 Iteration    1 A*A^-1 deviation from orthogonality  is 1.55D-15 for    672    203.
 Iteration    1 A^-1*A deviation from unit magnitude is 3.33D-15 for     80.
 Iteration    1 A^-1*A deviation from orthogonality  is 2.58D-15 for    593    511.
 E= -153.020643182174    
 DIIS: error= 2.68D-03 at cycle   1 NSaved=   1.
 NSaved= 1 IEnMin= 1 EnMin= -153.020643182174     IErMin= 1 ErrMin= 2.68D-03
 ErrMax= 2.68D-03  0.00D+00 EMaxC= 1.00D-01 BMatC= 1.50D-04 BMatP= 1.50D-04
 IDIUse=3 WtCom= 9.73D-01 WtEn= 2.68D-02
 Coeff-Com:  0.100D+01
 Coeff-En:   0.100D+01
 Coeff:      0.100D+01
 Gap=     1.000 Goal=   None    Shift=    0.000
 GapD=    1.000 DampG=2.000 DampE=1.000 DampFc=2.0000 IDamp=-1.
 RMSDP=7.08D-04 MaxDP=6.70D-03              OVMax= 0.00D+00

 Cycle   2  Pass 1  IDiag  1:
 E= -153.020921579912     Delta-E=       -0.000278397738 Rises=F Damp=F
 DIIS: error= 9.93D-04 at cycle   2 NSaved=   2.
 NSaved= 2 IEnMin= 2 EnMin= -153.020921579912     IErMin= 2 ErrMin= 9.93D-04
 ErrMax= 9.93D-04  0.00D+00 EMaxC= 1.00D-01 BMatC= 1.01D-05 BMatP= 1.50D-04
 IDIUse=3 WtCom= 9.90D-01 WtEn= 9.93D-03
 Coeff-Com: -0.182D+00 0.118D+01
 Coeff-En:   0.000D+00 0.100D+01
 Coeff:     -0.180D+00 0.118D+01
 Gap=     0.531 Goal=   None    Shift=    0.000
 RMSDP=2.82D-04 MaxDP=2.89D-03 DE=-2.78D-04 OVMax= 0.00D+00

 Cycle   3  Pass 1  IDiag  1:
 E= -153.020950345195     Delta-E=       -0.000028765283 Rises=F Damp=F
 DIIS: error= 3.51D-04 at cycle   3 NSaved=   3.
 NSaved= 3 IEnMin= 3 EnMin= -153.020950345195     IErMin= 3 ErrMin= 3.51D-04
 ErrMax= 3.51D-04  0.00D+00 EMaxC= 1.00D-01 BMatC= 1.00D-06 BMatP= 1.01D-05
 IDIUse=3 WtCom= 9.96D-01 WtEn= 3.51D-03
 Coeff-Com: -0.688D-01 0.200D+00 0.869D+00
 Coeff-En:   0.000D+00 0.000D+00 0.100D+01
 Coeff:     -0.686D-01 0.199D+00 0.869D+00
 Gap=     0.532 Goal=   None    Shift=    0.000
 RMSDP=6.38D-05 MaxDP=5.71D-04 DE=-2.88D-05 OVMax= 0.00D+00

 Cycle   4  Pass 1  IDiag  1:
 E= -153.020952396232     Delta-E=       -0.000002051037 Rises=F Damp=F
 DIIS: error= 8.92D-05 at cycle   4 NSaved=   4.
 NSaved= 4 IEnMin= 4 EnMin= -153.020952396232     IErMin= 4 ErrMin= 8.92D-05
 ErrMax= 8.92D-05  0.00D+00 EMaxC= 1.00D-01 BMatC= 7.22D-08 BMatP= 1.00D-06
 IDIUse=1 WtCom= 1.00D+00 WtEn= 0.00D+00
 Coeff-Com:  0.146D-01-0.111D+00 0.561D-01 0.104D+01
 Coeff:      0.146D-01-0.111D+00 0.561D-01 0.104D+01
 Gap=     0.532 Goal=   None    Shift=    0.000
 RMSDP=2.26D-05 MaxDP=2.52D-04 DE=-2.05D-06 OVMax= 0.00D+00

 Cycle   5  Pass 1  IDiag  1:
 E= -153.020952570965     Delta-E=       -0.000000174733 Rises=F Damp=F
 DIIS: error= 7.82D-06 at cycle   5 NSaved=   5.
 NSaved= 5 IEnMin= 5 EnMin= -153.020952570965     IErMin= 5 ErrMin= 7.82D-06
 ErrMax= 7.82D-06  0.00D+00 EMaxC= 1.00D-01 BMatC= 7.17D-10 BMatP= 7.22D-08
 IDIUse=1 WtCom= 1.00D+00 WtEn= 0.00D+00
 Coeff-Com: -0.299D-02 0.274D-01-0.203D-01-0.316D+00 0.131D+01
 Coeff:     -0.299D-02 0.274D-01-0.203D-01-0.316D+00 0.131D+01
 Gap=     0.532 Goal=   None    Shift=    0.000
 RMSDP=2.62D-06 MaxDP=2.55D-05 DE=-1.75D-07 OVMax= 0.00D+00

 Cycle   6  Pass 1  IDiag  1:
 E= -153.020952573274     Delta-E=       -0.000000002309 Rises=F Damp=F
 DIIS: error= 1.37D-06 at cycle   6 NSaved=   6.
 NSaved= 6 IEnMin= 6 EnMin= -153.020952573274     IErMin= 6 ErrMin= 1.37D-06
 ErrMax= 1.37D-06  0.00D+00 EMaxC= 1.00D-01 BMatC= 3.11D-11 BMatP= 7.17D-10
 IDIUse=1 WtCom= 1.00D+00 WtEn= 0.00D+00
 Coeff-Com:  0.137D-02-0.129D-01 0.132D-01 0.138D+00-0.646D+00 0.151D+01
 Coeff:      0.137D-02-0.129D-01 0.132D-01 0.138D+00-0.646D+00 0.151D+01
 Gap=     0.532 Goal=   None    Shift=    0.000
 RMSDP=5.14D-07 MaxDP=3.30D-06 DE=-2.31D-09 OVMax= 0.00D+00

 Cycle   7  Pass 1  IDiag  1:
 E= -153.020952573348     Delta-E=       -0.000000000075 Rises=F Damp=F
 DIIS: error= 2.30D-07 at cycle   7 NSaved=   7.
 NSaved= 7 IEnMin= 7 EnMin= -153.020952573348     IErMin= 7 ErrMin= 2.30D-07
 ErrMax= 2.30D-07  0.00D+00 EMaxC= 1.00D-01 BMatC= 1.29D-12 BMatP= 3.11D-11
 IDIUse=1 WtCom= 1.00D+00 WtEn= 0.00D+00
 Coeff-Com: -0.263D-03 0.245D-02-0.228D-02-0.272D-01 0.131D+00-0.481D+00
 Coeff-Com:  0.138D+01
 Coeff:     -0.263D-03 0.245D-02-0.228D-02-0.272D-01 0.131D+00-0.481D+00
 Coeff:      0.138D+01
 Gap=     0.532 Goal=   None    Shift=    0.000
 RMSDP=1.21D-07 MaxDP=8.18D-07 DE=-7.46D-11 OVMax= 0.00D+00

 Cycle   8  Pass 1  IDiag  1:
 E= -153.020952573352     Delta-E=       -0.000000000003 Rises=F Damp=F
 DIIS: error= 1.51D-08 at cycle   8 NSaved=   8.
 NSaved= 8 IEnMin= 8 EnMin= -153.020952573352     IErMin= 8 ErrMin= 1.51D-08
 ErrMax= 1.51D-08  0.00D+00 EMaxC= 1.00D-01 BMatC= 9.57D-15 BMatP= 1.29D-12
 IDIUse=1 WtCom= 1.00D+00 WtEn= 0.00D+00
 Coeff-Com:  0.121D-04-0.118D-03 0.122D-03 0.131D-02-0.702D-02 0.414D-01
 Coeff-Com: -0.200D+00 0.116D+01
 Coeff:      0.121D-04-0.118D-03 0.122D-03 0.131D-02-0.702D-02 0.414D-01
 Coeff:     -0.200D+00 0.116D+01
 Gap=     0.532 Goal=   None    Shift=    0.000
 RMSDP=8.71D-09 MaxDP=6.16D-08 DE=-3.24D-12 OVMax= 0.00D+00

 Error on total polarization charges =  0.00356
 SCF Done:  E(RHF) =  -153.020952573     A.U. after    8 cycles
            NFock=  8  Conv=0.87D-08     -V/T= 2.0066
 KE= 1.520125980510D+02 PE=-5.647272227497D+02 EE= 1.555081867466D+02
 Leave Link  502 at Sat Jan 31 20:59:44 2026, MaxMem=   536870912 cpu:               2.1 elap:               0.5
 (Enter /root/g16/l701.exe)
 ... and contract with generalized density number  0.
 Compute integral first derivatives.
 D1PCM: PCM CHGder 1st derivatives, ID1Alg=3 FixD1E=F DoIter=F DoCFld=F I1PDM=0.
 GePol: Maximum number of non-zero 1st derivatives   =     240
 Leave Link  701 at Sat Jan 31 20:59:44 2026, MaxMem=   536870912 cpu:               0.7 elap:               0.2
 (Enter /root/g16/l702.exe)
 L702 exits ... SP integral derivatives will be done elsewhere.
 Leave Link  702 at Sat Jan 31 20:59:44 2026, MaxMem=   536870912 cpu:               0.1 elap:               0.0
 (Enter /root/g16/l703.exe)
 Integral derivatives from FoFJK, PRISM(SPDF).
 Compute integral first derivatives, UseDBF=F ICtDFT=           0.
 Calling FoFJK, ICntrl=      2127 FMM=F ISym2X=0 I1Cent= 0 IOpClX= 0 NMat=1 NMatS=1 NMatT=0.
 FoFJK:  IHMeth= 1 ICntrl=    2127 DoSepK=F KAlg= 0 I1Cent=           0 FoldK=F
 IRaf=         0 NMat=       1 IRICut=       1 DoRegI=T DoRafI=F ISym2E= 0 IDoP0=0 IntGTp=1.
 FoFCou: FMM=F IPFlag=           0 FMFlag=      100000 FMFlg1=         800
         NFxFlg=           0 DoJE=F BraDBF=F KetDBF=F FulRan=T
         wScrn=  0.000000 ICntrl=      2127 IOpCl=  0 I1Cent=           0 NGrid=           0
         NMat0=    1 NMatS0=      1 NMatT0=    0 NMatD0=    1 NMtDS0=    0 NMtDT0=    0
 Symmetry not used in FoFCou.
 Leave Link  703 at Sat Jan 31 20:59:44 2026, MaxMem=   536870912 cpu:               0.2 elap:               0.0
 (Enter /root/g16/l716.exe)
 Dipole        = 1.53436895D-06 3.33701557D-07 2.43374966D-06
 ***** Axes restored to original set *****
 -------------------------------------------------------------------
 Center     Atomic                   Forces (Hartrees/Bohr)
 Number     Number              X              Y              Z
 -------------------------------------------------------------------
      1        6           0.000942528    0.000400533    0.000006517
      2        6           0.001439840   -0.001973868   -0.000001456
      3        6          -0.001432633    0.001976981    0.000007858
      4        6          -0.000949593   -0.000402425   -0.000001941
      5        1           0.000092018   -0.000032366    0.000004540
      6        1           0.000039048    0.000053164   -0.000008245
      7        1           0.000007157   -0.000022338   -0.000006174
      8        1          -0.000007185    0.000022464   -0.000002219
      9        1          -0.000092092    0.000032481    0.000001766
     10        1          -0.000039086   -0.000054626   -0.000000644
 -------------------------------------------------------------------
 Cartesian Forces:  Max     0.001976981 RMS     0.000684882
 Leave Link  716 at Sat Jan 31 20:59:44 2026, MaxMem=   536870912 cpu:               0.1 elap:               0.0
 (Enter /root/g16/l103.exe)

 GradGradGradGradGradGradGradGradGradGradGradGradGradGradGradGradGradGrad
 Berny optimization.
 Using GEDIIS/GDIIS optimizer.
 FormGI is forming the generalized inverse of G from B-inverse, IUseBI=4.
 Internal  Forces:  Max     0.002971268 RMS     0.000591470
 Search for a local minimum.
 Step number   2 out of a maximum of   43
 All quantities printed in internal units (Hartrees-Bohrs-Radians)
 RMS Force = .59147D-03 SwitMx=.10000D-02 MixMth= 2
 Mixed Optimization -- En-DIIS/RFO-DIIS
 Update second derivatives using D2CorX and points    1    2
 DE= -2.06D-03 DEPred=-2.02D-03 R= 1.02D+00
[...]
         Item               Value     Threshold  Converged?
 Maximum Force            0.000235     0.000450     YES
 RMS     Force            0.000041     0.000300     YES
 Maximum Displacement     0.000231     0.001800     YES
 RMS     Displacement     0.000114     0.001200     YES
 Predicted change in Energy=-6.816826D-08
 Optimization completed.
    -- Stationary point found.
                           ----------------------------
                           !   Optimized Parameters   !
                           ! (Angstroms and Degrees)  !
 --------------------------                            --------------------------
 ! Name  Definition              Value          Derivative Info.                !
 --------------------------------------------------------------------------------
 ! R1    R(1,2)                  1.3135         -DE/DX =    0.0                 !
 ! R2    R(1,5)                  1.0814         -DE/DX =    0.0                 !
 ! R3    R(1,6)                  1.0819         -DE/DX =    0.0                 !
 ! R4    R(2,3)                  1.4892         -DE/DX =    0.0002              !
 ! R5    R(2,7)                  1.0846         -DE/DX =    0.0                 !
 ! R6    R(3,4)                  1.3135         -DE/DX =    0.0                 !
 ! R7    R(3,8)                  1.0846         -DE/DX =    0.0                 !
 ! R8    R(4,9)                  1.0814         -DE/DX =    0.0                 !
 ! R9    R(4,10)                 1.0819         -DE/DX =    0.0                 !
 ! A1    A(2,1,5)              122.0236         -DE/DX =    0.0                 !
 ! A2    A(2,1,6)              121.9855         -DE/DX =    0.0                 !
 ! A3    A(5,1,6)              115.9909         -DE/DX =    0.0                 !
 ! A4    A(1,2,3)              124.0042         -DE/DX =    0.0                 !
 ! A5    A(1,2,7)              120.2865         -DE/DX =    0.0                 !
 ! A6    A(3,2,7)              115.7093         -DE/DX =    0.0                 !
 ! A7    A(2,3,4)              124.0042         -DE/DX =    0.0                 !
 ! A8    A(2,3,8)              115.7093         -DE/DX =    0.0                 !
 ! A9    A(4,3,8)              120.2865         -DE/DX =    0.0                 !
 ! A10   A(3,4,9)              122.0236         -DE/DX =    0.0                 !
 ! A11   A(3,4,10)             121.9855         -DE/DX =    0.0                 !
 ! A12   A(9,4,10)             115.9909         -DE/DX =    0.0                 !
 ! D1    D(5,1,2,3)           -180.0015         -DE/DX =    0.0                 !
 ! D2    D(5,1,2,7)             -0.0012         -DE/DX =    0.0                 !
 ! D3    D(6,1,2,3)             -0.0022         -DE/DX =    0.0                 !
 ! D4    D(6,1,2,7)            179.9981         -DE/DX =    0.0                 !
 ! D5    D(1,2,3,4)            180.0007         -DE/DX =    0.0                 !
 ! D6    D(1,2,3,8)              0.0006         -DE/DX =    0.0                 !
 ! D7    D(7,2,3,4)              0.0004         -DE/DX =    0.0                 !
 ! D8    D(7,2,3,8)            180.0004         -DE/DX =    0.0                 !
 ! D9    D(2,3,4,9)            179.9994         -DE/DX =    0.0                 !
 ! D10   D(2,3,4,10)            -0.0001         -DE/DX =    0.0                 !
 ! D11   D(8,3,4,9)             -0.0006         -DE/DX =    0.0                 !
 ! D12   D(8,3,4,10)           179.9999         -DE/DX =    0.0                 !
 --------------------------------------------------------------------------------
 GradGradGradGradGradGradGradGradGradGradGradGradGradGradGradGradGradGrad

 Leave Link  103 at Sat Jan 31 20:59:48 2026, MaxMem=   536870912 cpu:               0.1 elap:               0.1
 (Enter /root/g16/l9999.exe)

 ----------------------------------------------------------------------

 Electric dipole moment (input orientation):
 (Debye = 10**-18 statcoulomb cm , SI units = C m)
                  (au)            (Debye)         (10**-30 SI)
   Tot        0.000000D+00      0.000000D+00      0.000000D+00
   x          0.000000D+00      0.000000D+00      0.000000D+00
   y          0.000000D+00      0.000000D+00      0.000000D+00
   z          0.000000D+00      0.000000D+00      0.000000D+00

 Dipole polarizability, Alpha (input orientation).
 (esu units = cm**3 , SI units = C**2 m**2 J**-1)
 Alpha(0;0):
               (au)            (10**-24 esu)      (10**-40 SI)
   iso        0.294232D+02      0.436006D+01      0.485123D+01
   aniso      0.488657D+02      0.724115D+01      0.805687D+01
   xx         0.578538D+02      0.857305D+01      0.953881D+01
   yx         0.902424D+01      0.133725D+01      0.148790D+01
   yy         0.256141D+02      0.379562D+01      0.422319D+01
   zx         0.354027D-02      0.524614D-03      0.583711D-03
   zy         0.322333D-02      0.477648D-03      0.531455D-03
   zz         0.480160D+01      0.711524D+00      0.791678D+00

 First dipole hyperpolarizability, Beta (input orientation).
 ||, _|_  parallel and perpendicular components, (z) with respect to z axis,
 vector components x,y,z.  Values do not include the 1/n! factor of 1/2.
 (esu units = statvolt**-1 cm**4 , SI units = C**3 m**3 J**-2)
 Beta(0;0,0):
               (au)            (10**-30 esu)      (10**-50 SI)
   || (z)     0.000000D+00      0.000000D+00      0.000000D+00
   _|_(z)     0.000000D+00      0.000000D+00      0.000000D+00
   x          0.162509D-03      0.140395D-05      0.521061D-06
   y         -0.124980D-04     -0.107973D-06     -0.400731D-07
   z         -0.154744D-04     -0.133687D-06     -0.496167D-07
   ||         0.327443D-04      0.282885D-06      0.104990D-06
   xxx        0.583329D-04      0.503951D-06      0.187036D-06
   xxy        0.000000D+00      0.000000D+00      0.000000D+00
   yxy        0.000000D+00      0.000000D+00      0.000000D+00
   yyy        0.000000D+00      0.000000D+00      0.000000D+00
   xxz        0.132163D-03      0.114178D-05      0.423762D-06
   yxz       -0.157818D-03     -0.136342D-05     -0.506021D-06
   yyz       -0.122858D-03     -0.106140D-05     -0.393929D-06
   zxz        0.000000D+00      0.000000D+00      0.000000D+00
   zyz        0.000000D+00      0.000000D+00      0.000000D+00
   zzz       -0.144625D-04     -0.124945D-06     -0.463720D-07

 ----------------------------------------------------------------------

 Dipole orientation:
     6          3.14894576         -0.12075280         -1.45476325
     6          1.09511005          0.78850140         -0.39848489
     6         -1.09517318         -0.78849131          0.39838186
     6         -3.14901965          0.12076604          1.45463904
     1          4.70513607          1.08168655         -2.01037481
     1          3.38501848         -2.11825930         -1.82109086
     1          0.91348648          2.80086779         -0.05505339
     1         -0.91354474         -2.80085924          0.05496135
     1         -4.70523568         -1.08166665          2.01019315
     1         -3.38507191          2.11826740          1.82101075

 Electric dipole moment (dipole orientation):
 (Debye = 10**-18 statcoulomb cm , SI units = C m)
                  (au)            (Debye)         (10**-30 SI)
   Tot        0.000000D+00      0.000000D+00      0.000000D+00
   x          0.000000D+00      0.000000D+00      0.000000D+00
   y          0.000000D+00      0.000000D+00      0.000000D+00
   z          0.000000D+00      0.000000D+00      0.000000D+00

 Dipole polarizability, Alpha (dipole orientation).
 (esu units = cm**3 , SI units = C**2 m**2 J**-1)
 Alpha(0;0):
               (au)            (10**-24 esu)      (10**-40 SI)
   iso        0.294232D+02      0.436006D+01      0.485123D+01
   aniso      0.488657D+02      0.724115D+01      0.805687D+01
   xx         0.483757D+02      0.716853D+01      0.797607D+01
   yx        -0.641544D+01     -0.950670D+00     -0.105776D+01
   yy         0.248966D+02      0.368930D+01      0.410489D+01
   zx        -0.207435D+02     -0.307387D+01     -0.342014D+01
   zy         0.553226D+01      0.819797D+00      0.912147D+00
   zz         0.149973D+02      0.222236D+01      0.247271D+01

 First dipole hyperpolarizability, Beta (dipole orientation).
 ||, _|_  parallel and perpendicular components, (z) with respect to z axis,
 vector components x,y,z.  Values do not include the 1/n! factor of 1/2.
 (esu units = statvolt**-1 cm**4 , SI units = C**3 m**3 J**-2)
 Beta(0;0,0):
               (au)            (10**-30 esu)      (10**-50 SI)
   || (z)    -0.103281D-04     -0.892264D-07     -0.331155D-07
   _|_(z)     0.000000D+00      0.000000D+00      0.000000D+00
   x          0.154665D-03      0.133619D-05      0.495913D-06
   y          0.147166D-04      0.127140D-06      0.471866D-07
   z         -0.516403D-04     -0.446132D-06     -0.165578D-06
   ||         0.327443D-04      0.282885D-06      0.104990D-06
   xxx       -0.989735D-04     -0.855054D-06     -0.317345D-06
   xxy       -0.103109D-03     -0.890778D-06     -0.330604D-06
   yxy        0.754849D-04      0.652131D-06      0.242032D-06
   yyy       -0.364427D-04     -0.314836D-06     -0.116848D-06
   xxz       -0.936735D-04     -0.809266D-06     -0.300351D-06
   yxz       -0.102066D-03     -0.881769D-06     -0.327260D-06
   yyz        0.862235D-04      0.744904D-06      0.276464D-06
   zxz        0.750437D-04      0.648319D-06      0.240617D-06
   zyz        0.144457D-03      0.124799D-05      0.463181D-06
   zzz        0.000000D+00      0.000000D+00      0.000000D+00

 ----------------------------------------------------------------------
 1\1\GINC-DESKTOP-VHTRF8G\Freq\RHF\STO-3G\C4H6\ROOT\31-Jan-2026\0\\#P G
 eom=AllCheck Guess=TCheck SCRF=Check GenChk RHF/STO-3G Freq\\butadiene
 _conf_000\\0,1\C,1.8333277899,0.1111317659,0.0001298581\C,0.6252375689
 ,-0.4043214608,-0.0000001023\C,-0.6252453418,0.404323371,0.0000637677\
 C,-1.8333360822,-0.1111300555,-0.0000535215\H,2.7205845083,-0.50713729
 77,0.0001023406\H,2.0003202804,1.1800663161,0.0002601923\H,0.489679330
 3,-1.4803781314,-0.0001606882\H,-0.4896871806,1.4803801092,0.000217940
 8\H,-2.7205925545,0.5071394016,0.0000074807\H,-2.0003284187,-1.1800649
 084,-0.000209728\\Version=ES64L-G16RevA.03\State=1-A\HF=-153.020964\RM
 SD=3.184e-10\RMSF=6.064e-05\ZeroPoint=0.0997999\Thermal=0.1041818\Dipo
 le=0.,0.,-0.0000002\DipoleDeriv=-0.2194766,-0.0435613,-0.0000054,0.094
 4918,-0.0154796,0.000023,0.0000096,0.0000193,-0.1962998,0.055631,-0.01
 82207,0.0000008,-0.2906237,-0.0428562,-0.0000082,-0.000038,0.0000006,-
 0.0558281,0.0556305,-0.0182208,0.0000022,-0.2906236,-0.042856,-0.00001
 15,-0.0000359,0.0000019,-0.0558281,-0.2194764,-0.0435612,-0.0000088,0.
 094492,-0.0154794,0.0000301,0.0000109,0.0000238,-0.1962998,0.1241671,0
 .0422188,0.0000072,-0.0970302,-0.0106854,-0.0000162,-0.000006,-0.00000
 94,0.0879141,0.0533581,0.0182496,0.0000005,0.160492,0.0415606,0.000002
 7,0.000018,-0.0000053,0.0915226,-0.0136795,0.0013136,-0.0000033,0.1326
 7,0.0274605,-0.0000005,0.0000148,-0.000006,0.0726912,-0.0136795,0.0013
 136,-0.000003,0.1326701,0.0274605,-0.0000009,0.0000159,-0.0000064,0.07
 26911,0.1241672,0.0422188,0.0000081,-0.0970305,-0.0106855,-0.000018,-0
 .0000119,-0.0000124,0.0879142,0.053358,0.0182496,0.0000017,0.160492,0.
 0415606,-0.0000005,0.0000226,-0.0000062,0.0915226\Polar=57.853821,9.02
 42372,25.6141017,0.0035403,0.0032233,4.8016048\PolarDeriv=22.3272754,4
 .9780573,0.7402342,0.0011525,0.000135,0.5900391,11.0147568,0.8291229,-
 1.3684107,-0.0004694,-0.0004515,0.3391019,0.0015953,-0.000939,-0.00077
 91,9.2358704,2.6070644,0.0016822,-42.022007,-5.6857368,-0.8496649,-0.0
 02221,-0.0002191,-0.4180792,1.1267272,-0.1373466,2.3850193,0.0012433,0
 .0007499,-0.6792356,-0.0008138,0.0010333,0.000947,-8.6565592,-2.398720
 4,-0.0015796,42.0220226,5.6857427,0.8496664,0.0022401,0.0002108,0.4180
 793,-1.1267262,0.1373514,-2.3850173,-0.0013078,-0.0007512,0.6792354,0.
 000836,-0.0010581,-0.0009782,8.6565644,2.3987226,0.0015047,-22.3272934
 ,-4.9780641,-0.7402348,-0.0013188,-0.0001278,-0.5900394,-11.0147587,-0
 .8291268,1.3684093,0.0007803,0.0005586,-0.3391019,-0.0017804,0.0011321
 ,0.0009083,-9.2358779,-2.6070669,-0.0015721,10.0777546,-1.6212319,0.29
 35497,0.0002887,0.0000056,0.0435751,-2.5952867,3.9387642,-1.568226,0.0
 002106,0.0001744,-0.210939,0.0001959,0.0003341,0.0000893,1.0267748,-1.
 0587108,-0.0001547,4.0204037,2.7263319,0.3232139,0.0005388,0.0001219,-
 0.0945132,1.2339934,3.4628811,7.0182243,0.0004737,0.0007918,0.192935,0
 .0002764,0.0005237,0.0005298,-0.3413754,1.3438958,0.0002628,-1.3709796
 ,-2.293328,0.1366795,-0.0004513,-0.0000323,0.1152327,0.086987,-0.50419
 15,-7.18906,-0.0001884,-0.0008511,-0.1628358,-0.0002255,-0.0002424,-0.
 0006185,0.8190472,-1.434978,-0.000383,1.3709794,2.2933283,-0.1366795,0
 .0004007,0.0000285,-0.1152327,-0.086986,0.5041932,7.1890624,0.0001744,
 0.0007887,0.1628359,0.0001317,0.0002155,0.0006154,-0.819048,1.4349777,
 0.0003427,-10.0777523,1.6212334,-0.2935505,-0.0000817,-0.0000124,-0.04
 3575,2.5952882,-3.9387648,1.5682282,-0.0003329,-0.0000957,0.2109392,0.
 0001876,-0.0003977,-0.0000891,-1.0267725,1.0587122,0.0002728,-4.020403
 2,-2.7263328,-0.3232141,-0.000548,-0.0001101,0.0945133,-1.233995,-3.46
 2883,-7.0182295,-0.0005839,-0.0009138,-0.1929352,-0.0004031,-0.0006016
 ,-0.0006247,0.3413762,-1.3438966,-0.0003758\HyperPolar=0.0000583,-0.00
 00006,-0.0000053,-0.0000037,0.0001322,-0.0001578,-0.0001229,0.0000012,
 0.0000001,-0.0000145\Quadrupole=0.5793834,0.8444582,-1.4238417,0.02878
 07,0.0000788,0.0003058\PG=C01 [X(C4H6)]\NImag=0\\1.18613430,0.11636718
 ,0.94899900,0.00006859,0.00010097,0.15659738,-0.70448470,-0.23336728,-
 0.00006285,1.10498907,-0.24873620,-0.27713625,-0.00003866,0.18804583,0
 .93897393,-0.00006504,-0.00003936,-0.07206290,0.00006882,0.00011608,0.
 17843473,-0.05599718,0.01821351,-0.00000056,-0.24696879,0.10167575,0.0
 0000760,1.10498712,-0.01320947,0.02099595,0.00000069,0.10167578,-0.219
 74631,-0.00001454,0.18804477,0.93897365,-0.00000531,0.00000243,0.00919
 101,0.00000855,-0.00001484,-0.08456737,0.00006119,0.00011256,0.1784349
 3,0.00584180,0.00689410,0.00000118,-0.05599712,-0.01320946,-0.00000445
 ,-0.70448272,-0.24873524,-0.00005793,1.18613212,0.00689410,-0.00443737
 ,-0.00000025,0.01821350,0.02099595,0.00000223,-0.23336631,-0.27713606,
 -0.00003732,0.11636598,0.94899834,0.00000124,-0.00000041,0.00030126,0.
 00000004,0.00000128,0.00919097,-0.00005532,-0.00003798,-0.07206310,0.0
 0005149,0.00011690,0.15659762,-0.34289096,0.18504656,0.00000703,-0.019
 22720,0.02587444,0.00000204,-0.00259396,-0.00279851,-0.00000156,-0.000
 36940,0.00078308,0.00000013,0.35243270,0.18977357,-0.21871543,-0.00001
 044,-0.02244126,0.01609573,-0.00000012,-0.00207580,-0.00286092,-0.0000
 0259,-0.00057620,0.00146037,0.00000024,-0.19621385,0.21000978,0.000007
 33,-0.00001081,-0.05033978,-0.00000390,0.00000226,0.00957419,-0.000001
 18,-0.00000295,0.01717247,-0.00000002,0.00000032,-0.00041515,-0.000007
 25,0.00001113,0.03330281,-0.09182166,-0.05142100,-0.00000781,0.0015997
 0,-0.04120099,-0.00000562,0.00243402,-0.00058883,0.00000055,0.00018515
 ,-0.00011933,-0.00000003,0.01055220,0.03134093,0.00000426,0.08250549,-
 0.05586371,-0.46816765,-0.00005124,0.00455671,-0.00415241,-0.00000099,
 0.00141560,0.00293217,0.00000163,0.00060888,-0.00047208,-0.00000010,-0
 .01179975,-0.00826306,-0.00000209,0.06259267,0.47884765,-0.00000763,-0
 .00004973,-0.05171893,-0.00000057,-0.00000404,0.00672226,0.00000087,0.
 00000189,-0.01083257,0.,-0.00000017,0.00051118,-0.00000112,-0.00000012
 ,0.00376490,0.00000988,0.00005493,0.03376663,0.00035244,-0.04279284,-0
 .00000584,-0.08543908,-0.04449093,-0.00000781,0.00568806,0.03542891,0.
 00000489,0.00305020,0.00039601,0.00000018,0.00227040,0.00056896,0.0000
 0078,-0.00545313,-0.00109657,-0.00000136,0.08481600,0.00662321,-0.0045
 2040,-0.00000145,-0.04849810,-0.46287410,-0.00005982,-0.00752497,-0.01
 222779,-0.00000250,-0.00188136,0.00199385,0.00000032,-0.00017670,0.002
 13169,0.00000197,-0.00091915,-0.00039754,-0.00000269,0.05051557,0.4760
 9746,0.00000093,-0.00000361,0.00866397,-0.00000872,-0.00006009,-0.0574
 9849,-0.00000075,-0.00000056,0.00386671,-0.00000010,0.00000037,-0.0007
 2802,0.00000075,0.00000171,-0.01162536,-0.00000124,-0.00000204,0.01735
 339,0.00000920,0.00006445,0.03775466,0.00305021,0.00039601,0.00000022,
 0.00568806,0.03542891,0.00000507,-0.08543908,-0.04449091,-0.00000721,0
 .00035246,-0.04279280,-0.00000632,0.00023728,-0.00032585,-0.00000001,0
 .00003575,-0.00020089,-0.00000002,-0.00555793,0.00199764,-0.00000009,0
 .08481599,-0.00188136,0.00199385,0.00000027,-0.00752498,-0.01222778,-0
 .00000254,-0.04849803,-0.46287401,-0.00005817,0.00662320,-0.00452039,-
 0.00000156,-0.00037436,0.00024258,0.00000004,0.00023821,-0.00015746,0.
 ,0.00199764,-0.00028831,-0.00000027,0.05051551,0.47609735,-0.00000013,
 0.00000041,-0.00072802,-0.00000099,-0.00000102,0.00386670,-0.00000760,
 -0.00005781,-0.05749846,0.00000049,-0.00000356,0.00866394,-0.00000003,
 0.00000006,-0.00027581,0.00000004,-0.00000001,-0.00004282,-0.00000002,
 -0.00000033,0.00253179,0.00000878,0.00006283,0.03775466,-0.00036940,0.
 00078308,0.00000008,-0.00259397,-0.00279851,-0.00000100,-0.01922719,0.
 02587444,0.00000277,-0.34289079,0.18504661,0.00001718,-0.00038575,-0.0
 0013831,0.00000001,-0.00002531,-0.00020261,-0.00000005,0.00023728,-0.0
 0037436,-0.00000003,0.00227040,-0.00017670,0.00000041,0.35243253,-0.00
 057620,0.00146037,0.00000022,-0.00207580,-0.00286093,-0.00000294,-0.02
 244124,0.01609573,0.00000013,0.18977363,-0.21871557,-0.00001801,-0.000
 13831,-0.00033098,0.00000023,0.00008781,0.00023024,-0.00000008,-0.0003
 2585,0.00024258,0.00000006,0.00056896,0.00213169,0.00000200,-0.1962138
 9,0.21000990,-0.00000002,0.00000029,-0.00041516,-0.00000114,-0.0000028
 7,0.01717246,-0.00000457,0.00000175,0.00957417,0.00001842,-0.00001830,
 -0.05033972,0.00000009,0.00000018,-0.00192014,-0.00000002,-0.00000005,
 0.00076189,-0.00000002,0.00000005,-0.00027581,0.00000058,0.00000190,-0
 .01162535,-0.00001794,0.00001909,0.03330279,0.00018515,-0.00011933,-0.
 00000002,0.00243402,-0.00058883,0.00000038,0.00159971,-0.04120095,-0.0
 0000593,-0.09182170,-0.05142084,-0.00000858,-0.00002531,0.00008781,-0.
 00000002,-0.00001221,-0.00001033,0.,0.00003575,0.00023821,0.00000004,-
 0.00545313,-0.00091915,-0.00000094,0.01055220,0.03134090,0.00000463,0.
 08250551,0.00060888,-0.00047208,-0.00000011,0.00141559,0.00293216,0.00
 000201,0.00455671,-0.00415241,-0.00000133,-0.05586353,-0.46816706,-0.0
 0006068,-0.00020261,0.00023024,-0.00000010,-0.00001033,-0.00039986,0.,
 -0.00020089,-0.00015746,-0.00000002,-0.00109658,-0.00039754,-0.0000025
 6,-0.01179976,-0.00826303,-0.00000204,0.06259251,0.47884703,0.00000005
 ,-0.00000018,0.00051119,0.00000078,0.00000191,-0.01083256,0.00000032,-
 0.00000305,0.00672224,-0.00000908,-0.00006022,-0.05171897,-0.00000008,
 -0.00000006,0.00076189,0.00000001,-0.00000003,-0.00028593,-0.00000001,
 0.,-0.00004282,-0.00000100,-0.00000251,0.01735338,-0.00000143,-0.00000
 071,0.00376488,0.00001044,0.00006485,0.03376671\\-0.00002871,-0.000003
 42,0.00000122,-0.00018820,0.00013427,-0.00000009,0.00018903,-0.0001339
 6,0.00000167,0.00002786,0.00000325,-0.00000070,0.00001777,-0.00000812,
 0.00000114,0.00000862,0.00001578,-0.00000188,-0.00000445,-0.00000707,-
 0.00000145,0.00000446,0.00000712,-0.00000032,-0.00001775,0.00000818,0.
 00000042,-0.00000862,-0.00001605,0.\\\@


 "WOULD YOU TELL ME PLEASE, WHICH WAY I OUGHT TO WALK FROM HERE?"
 "THAT DEPENDS A GREAT DEAL ON WHERE YOU WANT TO GO," SAID THE CAT.
 "I DON'T MUCH CARE WHERE -- ", SAID ALICE.
 "THEN IT DOESN'T MATTER WHICH WAY YOU WALK," SAID THE CAT.

                                      -- LEWIS CARROLL
 Job cpu time:       0 days  0 hours  0 minutes 12.0 seconds.
 Elapsed time:       0 days  0 hours  0 minutes  3.1 seconds.
 File lengths (MBytes):  RWF=     40 Int=      0 D2E=      0 Chk=      7 Scr=      1
 Normal termination of Gaussian 16 at Sat Jan 31 20:59:49 2026.
