butadiene_conf_000                                                      
Freq      RHF                                                         STO-3G              
Number of atoms                            I               10
Info1-9                                    I   N=           9
          19          19        1002           0           0         100
           6           1           2
Full Title                                 C   N=           2
butadiene_conf_000      
Route                                      C   N=           5
#p HF/STO-3G SCRF=(PCM,Solvent=Acetone) Opt=CalcFC Freq     
Charge                                     I                0
Multiplicity                               I                1
Number of electrons                        I               30
Number of alpha electrons                  I               15
Number of beta electrons                   I               15
Number of basis functions                  I               26
Number of independent functions            I               26
Number of point charges in /Mol/           I                0
Number of translation vectors              I                0
Atomic numbers                             I   N=          10
           6           6           6           6           1           1
           1           1           1           1
Nuclear charges                            R   N=          10
  6.00000000E+00  6.00000000E+00  6.00000000E+00  6.00000000E+00  1.00000000E+00
  1.00000000E+00  1.00000000E+00  1.00000000E+00  1.00000000E+00  1.00000000E+00
Current cartesian coordinates              R   N=          30
  3.46421587E+00  2.14562276E-01  1.78780305E-04  1.18253902E+00 -7.62504244E-01
 -6.68093570E-05 -1.18253853E+00  7.62504426E-01  5.38875004E-05 -3.46421636E+00
 -2.14562472E-01 -1.67757042E-04  5.14242293E+00 -9.51591209E-01  1.26779657E-04
  3.77712951E+00  2.23496903E+00  4.25076144E-04  9.29045141E-01 -2.79629173E+00
 -3.70272694E-04 -9.29044805E-01  2.79629204E+00  3.45232409E-04 -5.14242296E+00
  9.51591756E-01 -5.24794864E-05 -3.77712972E+00 -2.23496980E+00 -4.62944468E-04
Number of symbols in /Mol/                 I                0
Force Field                                I                0
Atom Types                                 C   N=          10
                                                            
                                                            
Int Atom Types                             I   N=          10
           0           0           0           0           0           0
           0           0           0           0
MM charges                                 R   N=          10
  0.00000000E+00  0.00000000E+00  0.00000000E+00  0.00000000E+00  0.00000000E+00
  0.00000000E+00  0.00000000E+00  0.00000000E+00  0.00000000E+00  0.00000000E+00
Integer atomic weights                     I   N=          10
          12          12          12          12           1           1
           1           1           1           1
Real atomic weights                        R   N=          10
  1.20000000E+01  1.20000000E+01  1.20000000E+01  1.20000000E+01  1.00782504E+00
  1.00782504E+00  1.00782504E+00  1.00782504E+00  1.00782504E+00  1.00782504E+00
Atom fragment info                         I   N=          10
           0           0           0           0           0           0
           0           0           0           0
Atom residue num                           I   N=          10
           0           0           0           0           0           0
           0           0           0           0
Nuclear spins                              I   N=          10
           0           0           0           0           1           1
           1           1           1           1
Nuclear ZEff                               R   N=          10
 -3.60000000E+00 -3.60000000E+00 -3.60000000E+00 -3.60000000E+00 -1.00000000E+00
 -1.00000000E+00 -1.00000000E+00 -1.00000000E+00 -1.00000000E+00 -1.00000000E+00
Nuclear ZNuc                               R   N=          10
  6.00000000E+00  6.00000000E+00  6.00000000E+00  6.00000000E+00  1.00000000E+00
  1.00000000E+00  1.00000000E+00  1.00000000E+00  1.00000000E+00  1.00000000E+00
Nuclear QMom                               R   N=          10
  0.00000000E+00  0.00000000E+00  0.00000000E+00  0.00000000E+00  0.00000000E+00
  0.00000000E+00  0.00000000E+00  0.00000000E+00  0.00000000E+00  0.00000000E+00
Nuclear GFac                               R   N=          10
  0.00000000E+00  0.00000000E+00  0.00000000E+00  0.00000000E+00  2.79284600E+00
  2.79284600E+00  2.79284600E+00  2.79284600E+00  2.79284600E+00  2.79284600E+00
MicOpt                                     I   N=          10
          -1          -1          -1          -1          -1          -1
          -1          -1          -1          -1
Number of residues                         I                0
Number of secondary structures             I                0
Redundant internal dimensions              I   N=           4
          33           9          12          12
Redundant internal coordinate indices      I   N=         132
           1           2           0           0           1           5
           0           0           1           6           0           0
           2           3           0           0           2           7
           0           0           3           4           0           0
           3           8           0           0           4           9
           0           0           4          10           0           0
           2           1           5           0           2           1
           6           0           5           1           6           0
           1           2           3           0           1           2
           7           0           3           2           7           0
           2           3           4           0           2           3
           8           0           4           3           8           0
           3           4           9           0           3           4
          10           0           9           4          10           0
           5           1           2           3           5           1
           2           7           6           1           2           3
           6           1           2           7           1           2
           3           4           1           2           3           8
           7           2           3           4           7           2
           3           8           2           3           4           9
           2           3           4          10           8           3
           4           9           8           3           4          10
Redundant internal coordinates             R   N=          33
  2.48207741E+00  2.04359803E+00  2.04449467E+00  2.81411501E+00  2.04952453E+00
  2.48207846E+00  2.04952463E+00  2.04359807E+00  2.04449520E+00  2.12971342E+00
  2.12904948E+00  2.02442241E+00  2.16428227E+00  2.09939550E+00  2.01950754E+00
  2.16428228E+00  2.01950761E+00  2.09939541E+00  2.12971300E+00  2.12904928E+00
  2.02442303E+00  3.14156606E+00 -2.17833725E-05 -3.82495248E-05  3.14155921E+00
 -3.14158102E+00  1.11689646E-05  7.03072726E-06 -3.14158609E+00  3.14158225E+00
 -2.47767375E-06 -9.91665280E-06  3.14159066E+00
ZRed-IntVec                                I   N=          33
           0           0           0           0           0           0
           0           0           0           0           0           0
           0           0           0           0           0           0
           0           0           0           0           0           0
           0           0           0           0           0           0
           0           0           0
ZRed-FPVec                                 R   N=          33
  0.00000000E+00  0.00000000E+00  0.00000000E+00  0.00000000E+00  0.00000000E+00
  0.00000000E+00  0.00000000E+00  0.00000000E+00  0.00000000E+00  0.00000000E+00
  0.00000000E+00  0.00000000E+00  0.00000000E+00  0.00000000E+00  0.00000000E+00
  0.00000000E+00  0.00000000E+00  0.00000000E+00  0.00000000E+00  0.00000000E+00
  0.00000000E+00  0.00000000E+00  0.00000000E+00  0.00000000E+00  0.00000000E+00
  0.00000000E+00  0.00000000E+00  0.00000000E+00  0.00000000E+00  0.00000000E+00
  0.00000000E+00  0.00000000E+00  0.00000000E+00
ZRed-Constraint1                           R   N=          33
  2.48207741E+00  2.04359803E+00  2.04449467E+00  2.81411501E+00  2.04952453E+00
  2.48207846E+00  2.04952463E+00  2.04359807E+00  2.04449520E+00  2.12971342E+00
  2.12904948E+00  2.02442241E+00  2.16428227E+00  2.09939550E+00  2.01950754E+00
  2.16428228E+00  2.01950761E+00  2.09939541E+00  2.12971300E+00  2.12904928E+00
  2.02442303E+00  3.14156606E+00 -2.17833725E-05 -3.82495248E-05  3.14155921E+00
 -3.14158102E+00  1.11689646E-05  7.03072726E-06 -3.14158609E+00  3.14158225E+00
 -2.47767375E-06 -9.91665280E-06  3.14159066E+00
ZRed-Constraint2                           R   N=          33
  2.51181897E+00  2.03476316E+00  2.03752714E+00  2.73600698E+00  2.04611581E+00
  2.51193754E+00  2.04609979E+00  2.03475424E+00  2.03741529E+00  2.13006168E+00
  2.12110200E+00  2.03202122E+00  2.15963938E+00  2.09809393E+00  2.02545199E+00
  2.15965166E+00  2.02542741E+00  2.09810622E+00  2.13011005E+00  2.12112139E+00
  2.03195376E+00 -3.14018611E+00  1.31009988E-03  2.39877765E-03 -3.13929032E+00
  3.14140157E+00 -3.73218075E-04 -9.83179677E-05  3.14131220E+00 -3.14115059E+00
 -6.97353138E-05  6.31423272E-04 -3.14147303E+00
SymInf integers                            I   N=          26
           1           1           1           1           1           0
           0           0           0           0           0           0
           0           0           0           0           0           0
           0           0           0           0           0           0
           0           0
RotTr to input orientation                 R   N=          12
  9.99999135E-01 -1.31493046E-03 -0.00000000E+00  1.31493046E-03  9.99999135E-01
 -0.00000000E+00  0.00000000E+00  0.00000000E+00  1.00000000E+00 -7.58574174E-06
  1.71418584E-06  6.66159711E-05
Number of contracted shells                I               14
Number of primitive shells                 I               42
Pure/Cartesian d shells                    I                0
Pure/Cartesian f shells                    I                0
Highest angular momentum                   I                1
Largest degree of contraction              I                3
Shell types                                I   N=          14
           0          -1           0          -1           0          -1
           0          -1           0           0           0           0
           0           0
Number of primitives per shell             I   N=          14
           3           3           3           3           3           3
           3           3           3           3           3           3
           3           3
Shell to atom map                          I   N=          14
           1           1           2           2           3           3
           4           4           5           6           7           8
           9          10
Primitive exponents                        R   N=          42
  7.16168373E+01  1.30450963E+01  3.53051216E+00  2.94124936E+00  6.83483096E-01
  2.22289916E-01  7.16168373E+01  1.30450963E+01  3.53051216E+00  2.94124936E+00
  6.83483096E-01  2.22289916E-01  7.16168373E+01  1.30450963E+01  3.53051216E+00
  2.94124936E+00  6.83483096E-01  2.22289916E-01  7.16168373E+01  1.30450963E+01
  3.53051216E+00  2.94124936E+00  6.83483096E-01  2.22289916E-01  3.42525091E+00
  6.23913730E-01  1.68855404E-01  3.42525091E+00  6.23913730E-01  1.68855404E-01
  3.42525091E+00  6.23913730E-01  1.68855404E-01  3.42525091E+00  6.23913730E-01
  1.68855404E-01  3.42525091E+00  6.23913730E-01  1.68855404E-01  3.42525091E+00
  6.23913730E-01  1.68855404E-01
Contraction coefficients                   R   N=          42
  1.54328967E-01  5.35328142E-01  4.44634542E-01 -9.99672292E-02  3.99512826E-01
  7.00115469E-01  1.54328967E-01  5.35328142E-01  4.44634542E-01 -9.99672292E-02
  3.99512826E-01  7.00115469E-01  1.54328967E-01  5.35328142E-01  4.44634542E-01
 -9.99672292E-02  3.99512826E-01  7.00115469E-01  1.54328967E-01  5.35328142E-01
  4.44634542E-01 -9.99672292E-02  3.99512826E-01  7.00115469E-01  1.54328967E-01
  5.35328142E-01  4.44634542E-01  1.54328967E-01  5.35328142E-01  4.44634542E-01
  1.54328967E-01  5.35328142E-01  4.44634542E-01  1.54328967E-01  5.35328142E-01
  4.44634542E-01  1.54328967E-01  5.35328142E-01  4.44634542E-01  1.54328967E-01
  5.35328142E-01  4.44634542E-01
P(S=P) Contraction coefficients            R   N=          42
  0.00000000E+00  0.00000000E+00  0.00000000E+00  1.55916275E-01  6.07683719E-01
  3.91957393E-01  0.00000000E+00  0.00000000E+00  0.00000000E+00  1.55916275E-01
  6.07683719E-01  3.91957393E-01  0.00000000E+00  0.00000000E+00  0.00000000E+00
  1.55916275E-01  6.07683719E-01  3.91957393E-01  0.00000000E+00  0.00000000E+00
  0.00000000E+00  1.55916275E-01  6.07683719E-01  3.91957393E-01  0.00000000E+00
  0.00000000E+00  0.00000000E+00  0.00000000E+00  0.00000000E+00  0.00000000E+00
  0.00000000E+00  0.00000000E+00  0.00000000E+00  0.00000000E+00  0.00000000E+00
  0.00000000E+00  0.00000000E+00  0.00000000E+00  0.00000000E+00  0.00000000E+00
  0.00000000E+00  0.00000000E+00
Coordinates of each shell                  R   N=          42
  3.46421587E+00  2.14562276E-01  1.78780305E-04  3.46421587E+00  2.14562276E-01
  1.78780305E-04  1.18253902E+00 -7.62504244E-01 -6.68093570E-05  1.18253902E+00
 -7.62504244E-01 -6.68093570E-05 -1.18253853E+00  7.62504426E-01  5.38875004E-05
 -1.18253853E+00  7.62504426E-01  5.38875004E-05 -3.46421636E+00 -2.14562472E-01
 -1.67757042E-04 -3.46421636E+00 -2.14562472E-01 -1.67757042E-04  5.14242293E+00
 -9.51591209E-01  1.26779657E-04  3.77712951E+00  2.23496903E+00  4.25076144E-04
  9.29045141E-01 -2.79629173E+00 -3.70272694E-04 -9.29044805E-01  2.79629204E+00
  3.45232409E-04 -5.14242296E+00  9.51591756E-01 -5.24794864E-05 -3.77712972E+00
 -2.23496980E+00 -4.62944468E-04
Num ILSW                                   I              100
ILSW                                       I   N=         100
           0           0           0           0           2           0
           0           0           0           0           0          -1
           5           0           0           0           2           0
           0           0           0           0           1           0
           1           0           0           0           0           0
           0           0      100000           0          -1           0
           0           0           0           0           0           0
           0           0           0           1           0           0
           0 -2000000000           1           0           0           0
           0           0           4          52           0           0
           0           0           0           0           0           0
           0           0           0          10           0           1
           0           0           0           0           0           0
           0           0           0           0           0           0
           0           0           0           0           0           0
           0           0           0           0           0           0
           0           0           0           0
Num RLSW                                   I               52
RLSW                                       R   N=          52
  1.00000000E+00  1.00000000E+00  1.00000000E+00  1.00000000E+00  1.00000000E+00
  0.00000000E+00  0.00000000E+00  1.00000000E+00  0.00000000E+00  0.00000000E+00
  0.00000000E+00  0.00000000E+00  1.00000000E+00  0.00000000E+00  0.00000000E+00
  0.00000000E+00  0.00000000E+00  1.00000000E+00  0.00000000E+00  0.00000000E+00
  0.00000000E+00  0.00000000E+00  1.00000000E+00  0.00000000E+00  0.00000000E+00
  0.00000000E+00  0.00000000E+00  1.00000000E+00  0.00000000E+00  0.00000000E+00
  0.00000000E+00  0.00000000E+00  1.00000000E+00  0.00000000E+00  0.00000000E+00
  0.00000000E+00  0.00000000E+00  0.00000000E+00  1.00000000E+00  1.00000000E+00
  0.00000000E+00  1.00000000E+00  0.00000000E+00  0.00000000E+00  0.00000000E+00
  0.00000000E+00  0.00000000E+00  0.00000000E+00  0.00000000E+00  0.00000000E+00
  0.00000000E+00  0.00000000E+00
MxBond                                     I                3
NBond                                      I   N=          10
           3           3           3           3           1           1
           1           1           1           1
IBond                                      I   N=          30
           2           5           6           1           3           7
           2           4           8           3           9          10
           1           0           0           1           0           0
           2           0           0           3           0           0
           4           0           0           4           0           0
RBond                                      R   N=          30
  2.00000000E+00  1.00000000E+00  1.00000000E+00  2.00000000E+00  1.00000000E+00
  1.00000000E+00  1.00000000E+00  2.00000000E+00  1.00000000E+00  2.00000000E+00
  1.00000000E+00  1.00000000E+00  1.00000000E+00  0.00000000E+00  0.00000000E+00
  1.00000000E+00  0.00000000E+00  0.00000000E+00  1.00000000E+00  0.00000000E+00
  0.00000000E+00  1.00000000E+00  0.00000000E+00  0.00000000E+00  1.00000000E+00
  0.00000000E+00  0.00000000E+00  1.00000000E+00  0.00000000E+00  0.00000000E+00
Virial Ratio                               R      2.006679255609500E+00
SCF Energy                                 R     -1.530209640316486E+02
Total Energy                               R     -1.530209640316486E+02
RMS Force                                  R      6.064095867144160E-05
RMS Density                                R      3.183910998631853E-10
NImag                                      I                0
Job Status                                 I                1
Nuclear derivative order                   I                2
PCM-NSphere                                I               10
PCM-NGenSphere                             I               10
PCM-NOrd                                   I   N=          10
           1           2           3           4           5           6
           7           8           9          10
PCM-SphereRadii                            R   N=          10
  4.00253442E+00  4.00253442E+00  4.00253442E+00  4.00253442E+00  2.99956228E+00
  2.99956228E+00  2.99956228E+00  2.99956228E+00  2.99956228E+00  2.99956228E+00
PCM-SphereLoc                              R   N=          30
  3.46421587E+00  2.14562276E-01  1.78780305E-04  1.18253902E+00 -7.62504244E-01
 -6.68093570E-05 -1.18253853E+00  7.62504426E-01  5.38875004E-05 -3.46421636E+00
 -2.14562472E-01 -1.67757042E-04  5.14242293E+00 -9.51591209E-01  1.26779657E-04
  3.77712951E+00  2.23496903E+00  4.25076144E-04  9.29045141E-01 -2.79629173E+00
 -3.70272694E-04 -9.29044805E-01  2.79629204E+00  3.45232409E-04 -5.14242296E+00
  9.51591756E-01 -5.24794864E-05 -3.77712972E+00 -2.23496980E+00 -4.62944468E-04
External E-field                           R   N=          35
  0.00000000E+00  0.00000000E+00  0.00000000E+00  0.00000000E+00  0.00000000E+00
  0.00000000E+00  0.00000000E+00  0.00000000E+00  0.00000000E+00  0.00000000E+00
  0.00000000E+00  0.00000000E+00  0.00000000E+00  0.00000000E+00  0.00000000E+00
  0.00000000E+00  0.00000000E+00  0.00000000E+00  0.00000000E+00  0.00000000E+00
  0.00000000E+00  0.00000000E+00  0.00000000E+00  0.00000000E+00  0.00000000E+00
  0.00000000E+00  0.00000000E+00  0.00000000E+00  0.00000000E+00  0.00000000E+00
  0.00000000E+00  0.00000000E+00  0.00000000E+00  0.00000000E+00  0.00000000E+00
IOpCl                                      I                0
IROHF                                      I                0
Alpha Orbital Energies                     R   N=          26
 -1.10325145E+01 -1.10322956E+01 -1.10184261E+01 -1.10184148E+01 -1.03666507E+00
 -9.53655707E-01 -7.69467380E-01 -7.09776049E-01 -5.97186927E-01 -5.92142498E-01
 -5.05218998E-01 -4.98179326E-01 -4.32863264E-01 -4.01016576E-01 -2.77877498E-01
  2.54457249E-01  4.18676533E-01  5.77977137E-01  6.69461000E-01  6.81131687E-01
  6.96102504E-01  7.08282235E-01  8.85029412E-01  9.35531824E-01  1.01810340E+00
  1.10574478E+00
Alpha MO coefficients                      R   N=         676
  2.49554510E-02 -4.96309569E-03  3.02345924E-03  1.18244983E-03  3.07690669E-07
  7.00868868E-01  2.97614696E-02 -1.65854162E-03  2.00235081E-03  2.38858902E-07
 -7.00769964E-01 -2.97584605E-02 -1.65903899E-03  2.00250267E-03  2.09754612E-07
 -2.49520320E-02  4.96241775E-03  3.02304284E-03  1.18226092E-03  2.78116391E-07
 -5.17310351E-05 -3.97857434E-05 -4.90190921E-03  4.90122853E-03  5.17180764E-05
  3.97643013E-05  2.36407845E-02 -4.78356198E-03  2.94957881E-03  1.33717186E-03
  3.25453840E-07  7.01499246E-01  2.13008042E-02  3.49665174E-03 -1.09233592E-03
  3.95863848E-09  7.01598055E-01  2.13049943E-02 -3.49641391E-03  1.09205486E-03
  1.50003273E-08  2.36442222E-02 -4.78425839E-03 -2.95000453E-03 -1.33733812E-03
 -2.97080235E-07 -9.08597630E-05 -1.51197233E-04 -4.82639772E-03 -4.82708833E-03
 -9.08669120E-05 -1.51202367E-04  7.01373218E-01  2.60562662E-02 -1.27701186E-03
 -5.18168537E-04 -1.62204971E-07 -2.45986056E-02 -7.01057394E-03 -2.96464020E-03
 -1.45476224E-03 -3.43888489E-07  2.45844885E-02  7.00678778E-03 -2.96277950E-03
 -1.45405822E-03 -3.14426523E-07 -7.00950282E-01 -2.60406548E-02 -1.27631271E-03
 -5.17855489E-04 -1.39869629E-07 -4.84369397E-03 -4.83999889E-03  3.14784847E-04
 -3.14679206E-04  4.84077172E-03  4.83708113E-03  7.01006316E-01  2.58604087E-02
 -1.15331880E-03 -5.19779021E-04 -1.56052498E-07 -2.32626501E-02 -6.26105558E-03
 -3.08281981E-03 -1.16718920E-03 -3.07872577E-07 -2.32773954E-02 -6.26527263E-03
  3.08460681E-03  1.16806518E-03  2.73683687E-07  7.01429225E-01  2.58761106E-02
  1.15408538E-03  5.20091914E-04  1.37012636E-07 -4.84342109E-03 -4.83256576E-03
  1.73755531E-04  1.73944705E-04 -4.84634157E-03 -4.83548194E-03 -1.06173760E-01
  2.72577660E-01 -8.24808397E-02 -2.84415711E-02 -8.05035756E-06 -1.48998958E-01
  3.86345871E-01  8.29564932E-03  5.29806755E-02  8.22693735E-06 -1.48998690E-01
  3.86345256E-01 -8.29524224E-03 -5.29805862E-02 -7.56879704E-06 -1.06173395E-01
  2.72576796E-01  8.24805750E-02  2.84414829E-02  7.20760465E-06  5.60259874E-02
  6.10286822E-02  8.63725912E-02  8.63724615E-02  5.60258032E-02  6.10284669E-02
 -1.45353261E-01  3.85173938E-01 -6.86005834E-02 -3.51769978E-02 -8.56192910E-06
 -9.94073550E-02  2.60788624E-01  1.52812862E-01  1.86746969E-02  9.53041510E-06
  9.94077120E-02 -2.60789657E-01  1.52812702E-01  1.86747821E-02  8.31665039E-06
  1.45353462E-01 -3.85174574E-01 -6.86007174E-02 -3.51770580E-02 -7.69053735E-06
  1.02612055E-01  9.77944023E-02  6.17406424E-02 -6.17409198E-02 -1.02612208E-01
 -9.77945277E-02 -1.19614424E-01  3.54067174E-01  1.22856787E-01  1.98000653E-02
  7.93695632E-06  8.54911455E-02 -2.59094250E-01  1.93637280E-01 -8.87618385E-05
  8.55046805E-06  8.54911097E-02 -2.59094156E-01 -1.93637277E-01  8.88127256E-05
 -7.01093485E-06 -1.19614446E-01  3.54067286E-01 -1.22856668E-01 -1.97999496E-02
 -6.76529468E-06  1.85322724E-01  1.53683544E-01 -1.06569464E-01 -1.06569381E-01
  1.85322738E-01  1.53683467E-01  5.54037433E-02 -1.73821781E-01 -9.77889931E-02
 -1.52963416E-01 -2.43236557E-05 -9.46334625E-02  2.90941806E-01  3.35876147E-03
 -2.16511675E-01 -3.01698214E-05  9.46334857E-02 -2.90941923E-01  3.35850051E-03
 -2.16511512E-01 -2.99681979E-05 -5.54037914E-02  1.73821932E-01 -9.77889483E-02
 -1.52963085E-01 -2.47282151E-05 -6.62145358E-02 -1.80827159E-01  2.57754179E-01
 -2.57754148E-01  6.62146573E-02  1.80826987E-01 -1.94187221E-02  8.29182607E-02
  3.56498297E-01 -4.38252245E-02  1.32105244E-05  4.09791761E-02 -1.17638448E-01
 -1.72025695E-01 -2.02545078E-01 -3.55682091E-05 -4.09792060E-02  1.17638669E-01
 -1.72025312E-01 -2.02544563E-01 -3.51807768E-05  1.94187812E-02 -8.29183550E-02
  3.56497685E-01 -4.38251706E-02  5.50505102E-06  2.82502661E-01  4.15256684E-02
  1.15081257E-01 -1.15080747E-01 -2.82502301E-01 -4.15256458E-02 -7.03012759E-03
  3.20653893E-02 -3.28062006E-02  3.21592235E-01  3.75683140E-05  7.30004644E-03
 -1.98192964E-02 -1.87832283E-01  2.18992647E-01  2.10016024E-05  7.30011091E-03
 -1.98195565E-02  1.87832054E-01 -2.18993033E-01 -2.41819756E-05 -7.03017293E-03
  3.20655179E-02  3.28063513E-02 -3.21592172E-01 -4.46481364E-05 -1.51539765E-01
  2.53928191E-01 -1.52798633E-01 -1.52799105E-01 -1.51539848E-01  2.53928205E-01
  2.63280096E-02 -6.83940871E-02  3.53517848E-01  8.98147868E-02  2.92945058E-05
  1.69902704E-03  1.70376811E-02 -3.29807857E-01 -1.89220657E-01 -4.27601036E-05
  1.69935034E-03  1.70363437E-02  3.29806807E-01  1.89219168E-01  3.76734170E-05
  2.63279045E-02 -6.83938877E-02 -3.53518665E-01 -8.98108221E-02 -2.51169226E-05
  1.83108096E-01  1.02915471E-01  2.20872650E-01  2.20870583E-01  1.83110947E-01
  1.02912097E-01  6.12400959E-03 -1.14979348E-02 -1.60510485E-02  3.61835097E-01
  3.67976135E-05 -2.11363123E-02  8.60488239E-02 -1.26482885E-01 -1.63929053E-01
 -3.60902622E-05  2.11362806E-02 -8.60489336E-02 -1.26486321E-01 -1.63931287E-01
 -3.01175512E-05 -6.12427449E-03  1.14986276E-02 -1.60473035E-02  3.61836401E-01
  4.97655531E-05 -2.18889102E-01  3.22172134E-01  2.01682226E-01 -2.01684779E-01
  2.18887391E-01 -3.22173606E-01  4.71081797E-04  5.97774174E-03  1.26222384E-01
 -2.03387880E-01  5.35605773E-06 -2.06555950E-02  8.34101158E-02 -2.30118021E-01
  3.27970328E-01  6.28840710E-05 -2.06556227E-02  8.34102070E-02  2.30118132E-01
 -3.27970181E-01 -1.58724713E-05  4.71091676E-04  5.97768038E-03 -1.26222313E-01
  2.03387509E-01  4.08951353E-05  2.44825984E-01 -2.17538769E-01 -2.92350260E-01
 -2.92350080E-01  2.44825675E-01 -2.17538421E-01 -2.40073489E-07  7.97253835E-07
 -2.58400887E-05 -2.94334944E-05  3.70916305E-01  1.18880790E-06 -4.78858038E-06
 -1.17980887E-05 -8.68183307E-05  4.75314395E-01  1.52740677E-06 -6.39024297E-06
 -3.12848552E-05 -5.06284629E-05  4.75313753E-01  2.44850623E-07 -1.52332949E-06
 -6.99585211E-06 -6.02971728E-05  3.70915495E-01 -1.67771541E-05  1.68621147E-05
  1.93233582E-05  1.37515406E-05 -1.05858843E-05  8.88229255E-06 -5.22960472E-07
  2.28059839E-06 -2.93406884E-05 -5.93992320E-05  5.20519825E-01  8.69641350E-08
 -3.66532338E-07 -1.82500311E-05 -6.04250574E-05  4.04388423E-01  9.14337287E-07
 -4.03780131E-06  1.19282015E-05  5.86700574E-05 -4.04389282E-01 -4.10757851E-07
  1.71984126E-06  1.82008818E-05  7.48802218E-05 -5.20520454E-01 -4.98440956E-06
  4.51359537E-06  5.38808098E-06  8.35764366E-07 -2.90305512E-07 -2.57825549E-07
 -7.92428440E-07  4.22697007E-06 -3.46557808E-05 -7.30535325E-05  6.28566525E-01
  6.82566082E-08 -2.21839890E-07  2.02615068E-05  6.93504543E-05 -4.74930495E-01
  8.23758112E-07 -4.41024065E-06  1.38392647E-05  6.83098664E-05 -4.74931200E-01
  1.04556293E-07 -8.58783274E-07 -1.93003127E-05 -8.88407197E-05  6.28567055E-01
  2.54408665E-06 -6.00718235E-06  4.87293150E-06  6.06636554E-07  3.73013939E-07
  1.17738049E-06  3.99149135E-07 -2.59343709E-06  2.78014923E-05  4.99209170E-05
 -5.12748429E-01  6.46169554E-07 -3.83128897E-06 -2.61495040E-05 -1.09537124E-04
  6.98293377E-01 -1.47896758E-06  8.02968739E-06  3.20061979E-05  8.84597297E-05
 -6.98292743E-01  1.16838462E-06 -6.58105075E-06 -1.75828239E-05 -7.84500954E-05
  5.12747584E-01 -1.02600837E-05  1.56690423E-05 -1.11737746E-05  5.00366969E-06
  8.34134643E-06 -3.45538573E-06  1.83579015E-02 -1.15762797E-01 -9.20458413E-02
  4.57929904E-01  3.33625999E-05 -2.75870512E-02  1.63448669E-01 -2.31236763E-01
  5.52141123E-01  8.76480564E-05  2.75871634E-02 -1.63449364E-01 -2.31236802E-01
  5.52140732E-01  5.58034639E-05 -1.83578477E-02  1.15762470E-01 -9.20450347E-02
  4.57929516E-01  7.05574460E-05  4.47177141E-01 -4.08879742E-01  4.70825489E-01
 -4.70824647E-01 -4.47176079E-01  4.08879406E-01 -6.77514190E-03  3.42781954E-02
 -3.83597512E-01  3.76135795E-01  1.70327323E-05  8.05847960E-02 -5.33154772E-01
 -1.75155557E-02  3.84671279E-01  6.12033339E-05  8.05863878E-02 -5.33164381E-01
  1.75124594E-02 -3.84672662E-01 -5.44922251E-05 -6.77596546E-03  3.42831248E-02
  3.83597095E-01 -3.76136239E-01 -4.05346700E-05  4.92416596E-01 -3.70350785E-01
  6.26154198E-01  6.26160910E-01  4.92413721E-01 -3.70353535E-01  5.40608456E-02
 -3.14882767E-01 -3.95510571E-02  7.59427062E-02  5.51899568E-06 -1.68529317E-01
  1.03516348E+00 -4.56434770E-01 -9.62509043E-02 -3.13350507E-05  1.68528661E-01
 -1.03515897E+00 -4.56434344E-01 -9.62471044E-02 -3.14463400E-05 -5.40612799E-02
  3.14885667E-01 -3.95557102E-02  7.59457616E-02  1.10556850E-05  2.62736493E-01
  7.81469070E-02 -6.82736798E-01  6.82731146E-01 -2.62743240E-01 -7.81456694E-02
  1.42269231E-01 -9.28506914E-01 -2.78951940E-01 -1.81341201E-01 -3.10935092E-05
  1.42421655E-02 -1.06764353E-01  2.93307705E-01  7.70604965E-02  2.17324937E-05
 -1.42417471E-02  1.06762474E-01  2.93310728E-01  7.70624268E-02  2.13865053E-05
 -1.42273147E-01  9.28531978E-01 -2.78962148E-01 -1.81346740E-01 -3.27984195E-05
  5.58397094E-01  6.58968133E-01  1.70654202E-01 -1.70653623E-01 -5.58414143E-01
 -6.58986805E-01 -1.40622800E-01  9.10200832E-01  3.45076285E-01  2.23790317E-01
  3.90532837E-05  2.25152679E-02 -1.17358925E-01 -1.09388686E-01 -2.87838880E-02
 -4.80946837E-06  2.25151083E-02 -1.17358503E-01  1.09381724E-01  2.87826226E-02
  5.20062837E-06 -1.40618649E-01  9.10173586E-01 -3.45068129E-01 -2.23785379E-01
 -3.98772887E-05 -5.80981482E-01 -6.97559424E-01  7.92027358E-02  7.92047829E-02