26
 energy: -41.439986718010 gnorm: 0.810040035857 xtb: 6.7.1 (edcfbbe)
O            2.93258600000000       -0.67839800000000       -1.43445900000000
C            2.04891400000000       -0.58406300000000       -0.59853600000000
C            0.86796500000000       -1.46479900000000       -0.55394100000000
C           -0.12595700000000       -1.21891400000000        0.32902600000000
C           -1.46057100000000       -1.90171500000000        0.31303400000000
C           -2.53781400000000       -1.05870000000000       -0.40356400000000
C           -2.64122400000000        0.40189300000000        0.08235600000000
C           -1.42459200000000        1.20392300000000       -0.35168300000000
O           -1.37926700000000        1.72989400000000       -1.44505200000000
C           -0.47054741920000        2.12371147360000        0.20132459300000
C            0.49883642800000        2.40656657530000       -0.26815302540000
C            2.62877457200000       -0.18787857530000        0.72291602540000
O            1.44674500000000        0.04141600000000        1.64796900000000
C            0.28492941920000       -0.92601647360000        1.74353540700000
H            0.80280500000000       -2.26385100000000       -1.29761700000000
H           -1.37880300000000       -2.87596400000000       -0.19128600000000
H           -1.78371700000000       -2.08829200000000        1.35106700000000
H           -3.51380100000000       -1.54838900000000       -0.26534200000000
H           -2.33242000000000       -1.05132900000000       -1.48609200000000
H           -2.76244100000000        0.43292200000000        1.17707100000000
H           -3.52333600000000        0.86964700000000       -0.37804200000000
H           -0.56571800000000        1.99289200000000        1.41338900000000
H            1.02057000000000        1.79094300000000       -1.08276100000000
H            1.44975500000000        2.63576600000000        0.42131100000000
H            3.06468200000000        0.85620100000000        0.65144100000000
H           -0.49037800000000       -0.25788700000000        2.24130100000000
26
 energy: -41.664186788935 gnorm: 0.269519305144 xtb: 6.7.1 (edcfbbe)
O            2.93057121175907       -0.66772099568614       -1.47166318958212
C            2.08802618886179       -0.65249194785911       -0.57399749851879
C            0.86748322440516       -1.46613769663658       -0.56436102702386
C           -0.11634224391270       -1.26086689984693        0.35720338493293
C           -1.46708378665124       -1.90753098462539        0.31457657186403
C           -2.53704953268494       -1.06083520414204       -0.40694402452975
C           -2.63982718397564        0.39419463851765        0.08509108129970
C           -1.47401413950596        1.23370142238722       -0.37107968716234
O           -1.42309926805062        1.70024387782075       -1.51573975544251
C           -0.50147228472166        2.05661422735700        0.29722946247184
C            0.61975395828122        2.37915354252838       -0.25253963019991
C            2.54432743059233       -0.13571101100362        0.73412789883294
O            1.46507280049088        0.01774991359356        1.67537314568482
C            0.29986518146708       -0.83066676032860        1.69181435687618
H            0.79125285625781       -2.24281006171426       -1.31868692021516
H           -1.38373028294145       -2.87461721135138       -0.19225660066381
H           -1.78648439741889       -2.08878677107140        1.34727238668836
H           -3.50989963778753       -1.54664987165427       -0.26546481693976
H           -2.33167722703725       -1.04987972417481       -1.48401704275043
H           -2.75832650124443        0.43168745971100        1.17464128927870
H           -3.51814894039119        0.86461372471436       -0.37594645234791
H           -0.58545293945283        2.02664415273098        1.43470768708009
H            1.02322504869211        1.82080620327583       -1.11879717144590
H            1.46241099790045        2.67137251884868        0.41313706478867
H            3.07467848661647        0.83933333232688        0.66858786227664
H           -0.47808301954807       -0.27183087371774        2.25694462474733
26
 energy: -41.759748378461 gnorm: 0.117480226532 xtb: 6.7.1 (edcfbbe)
O            2.92486821828323       -0.66453205991688       -1.48993991631601
C            2.11769263343874       -0.71575325214402       -0.55158541457357
C            0.87818701517272       -1.48087985771329       -0.56549864959399
C           -0.09103797508432       -1.30638672456636        0.38912658738067
C           -1.46591074967686       -1.91113245651258        0.32062246665099
C           -2.52716854843255       -1.05749805141310       -0.40764614274819
C           -2.62428306009606        0.39764464230723        0.08568030433543
C           -1.50200875184597        1.28049399605910       -0.40787306395704
O           -1.45659939218549        1.66671020353393       -1.58534775907895
C           -0.48213326141909        1.98375328752900        0.37068105677005
C            0.67109396387130        2.31981194609745       -0.20331303768983
C            2.42592815218409       -0.08673887338458        0.74203884582077
O            1.46908567022898        0.00106956192477        1.67327866770088
C            0.32892573012337       -0.71517063644666        1.62569601882263
H            0.76835420083515       -2.20814802915050       -1.35819928202274
H           -1.39237530469180       -2.87257199554867       -0.19176916512305
H           -1.79392153809641       -2.08973398109852        1.34545342999232
H           -3.49898556604423       -1.54126586272909       -0.26387618367379
H           -2.32604437691962       -1.04652680866417       -1.48108262334001
H           -2.74347573833490        0.43154780151469        1.17131426970305
H           -3.51363068499029        0.85238877952419       -0.36896388373802
H           -0.59089551182937        2.06636296824661        1.43365387853613
H            0.99140710260701        1.86027849192047       -1.14139210952075
H            1.45271164620336        2.70235595642108        0.40909288392808
H            3.08663143226562        0.80335399535177        0.70521047851153
H           -0.45043930556662       -0.28985404114187        2.28385134322340
26
 energy: -41.790327916158 gnorm: 0.065763431766 xtb: 6.7.1 (edcfbbe)
O            2.91747940377669       -0.67853262166599       -1.48763147849763
C            2.12377971206428       -0.74240716280839       -0.54618939043900
C            0.89275503278066       -1.50012700838071       -0.55546533647851
C           -0.06873115701538       -1.32849703007171        0.40878305447034
C           -1.45603857753021       -1.91114663685168        0.32909386666023
C           -2.50458281942587       -1.04970212258453       -0.40707478156283
C           -2.61271208717654        0.40399751301983        0.08431531008218
C           -1.51150686735273        1.29184278588102       -0.45181997534469
O           -1.49042424618370        1.62838328458345       -1.62944647154097
C           -0.46347690152931        1.90541769129781        0.40121748302475
C            0.70232914008502        2.25216400292111       -0.17041414463436
C            2.34267418887838       -0.05198434100046        0.71854371640137
O            1.46276895758053       -0.02093375733098        1.66204624704919
C            0.31918573509748       -0.63507026246368        1.57761195641593
H            0.73215331668183       -2.16027911627095       -1.40690654915888
H           -1.39836537544992       -2.87056521200344       -0.18788035461911
H           -1.80287962901766       -2.08774411640333        1.34749732768968
H           -3.47636620867051       -1.53109059477393       -0.26051026777141
H           -2.30624410342110       -1.04036786922485       -1.47946467167033
H           -2.70833630886743        0.43687789482348        1.17003126764377
H           -3.52193470482760        0.83394881016544       -0.35480940192781
H           -0.63974770847123        2.11915753371478        1.45959568425775
H            0.97339315299099        1.90379663924580       -1.17315921004640
H            1.46838886944187        2.75878012858374        0.41754502452603
H            3.10500812197809        0.75680482742673        0.75548010140512
H           -0.42259293641662       -0.30314425982855        2.31822399406563
26
 energy: -41.798650866547 gnorm: 0.049112580234 xtb: 6.7.1 (edcfbbe)
O            2.90668511982992       -0.68411752655751       -1.49861831856235
C            2.12642499805560       -0.75431665336956       -0.54393176028522
C            0.88419407863161       -1.49558570364291       -0.55544717786550
C           -0.06905861877180       -1.32732161151903        0.42014724504894
C           -1.45124920912654       -1.91309800606900        0.34031010157391
C           -2.47999126516324       -1.04130529946692       -0.40479902520119
C           -2.59492444212845        0.41190587856382        0.08485322223851
C           -1.51062343692971        1.30559675132929       -0.48686916862146
O           -1.50627095260669        1.58826185333568       -1.67349740683264
C           -0.46801770302680        1.88864480477499        0.40189302347903
C            0.70903654016454        2.23914451289358       -0.14791717496071
C            2.31702327811189       -0.02411645999507        0.68603927806707
O            1.47883817991588       -0.04345946580558        1.69001010891090
C            0.28718352457361       -0.58629208079369        1.55104061859734
H            0.68720767498844       -2.10789606019239       -1.43743610828026
H           -1.40127978690063       -2.87158836570769       -0.17856365298406
H           -1.81256932679177       -2.08624831455673        1.35477233568074
H           -3.45166539649131       -1.52189015526504       -0.26498052139522
H           -2.26951532709118       -1.03115606440747       -1.47489909473350
H           -2.65382845041703        0.44997857339334        1.17230582550637
H           -3.52944854799975        0.81054432424701       -0.33183791033264
H           -0.68259641850645        2.09763854326312        1.42663586158927
H            0.95945127006098        1.95449452751838       -1.15983037037483
H            1.46519611726532        2.72769127140209        0.41632434939576
H            3.12304702554562        0.71797058331577        0.79381140544123
H           -0.40727292519207       -0.32390085668845        2.35969731490071
26
 energy: -41.802977485541 gnorm: 0.052734185951 xtb: 6.7.1 (edcfbbe)
O            2.91442251457925       -0.71651912705840       -1.49060864550019
C            2.12445768664875       -0.75404079378850       -0.54802270984358
C            0.86238325536353       -1.47575346238805       -0.56625549310515
C           -0.07639211615068       -1.32637756318808        0.43322561798120
C           -1.45208774934645       -1.91747356692890        0.35337161560505
C           -2.46247918555331       -1.03589922516847       -0.40109356713429
C           -2.57878151075407        0.41523026104408        0.09309511596334
C           -1.49757811135384        1.29299456230471       -0.51061490007452
O           -1.49563787334590        1.51946898240480       -1.70921953610952
C           -0.46553407837067        1.86232726656943        0.39323484042860
C            0.72468138555525        2.20734861529621       -0.11954337782879
C            2.28819434318803       -0.00180902766866        0.66537223192753
O            1.41807595059126        0.03471804983229        1.61828969570709
C            0.27544131486940       -0.54927994555135        1.53687622554971
H            0.65629845131884       -2.07300083221327       -1.43882342751093
H           -1.40543239763522       -2.87349600019330       -0.16979188295388
H           -1.82553059697744       -2.09189017932551        1.36347757568393
H           -3.43746944777502       -1.51275492163112       -0.28287236556599
H           -2.22721685373074       -1.01550695118493       -1.46723434769768
H           -2.59460610949142        0.46098479267064        1.18243933343763
H           -3.53031527460215        0.79755457494430       -0.29636856333092
H           -0.75512288613780        2.11599039014975        1.40956651923934
H            0.95840858542919        1.99188048057182       -1.15198263007168
H            1.46732108020504        2.74574258774045        0.44348552672537
H            3.16744519590830        0.65373315983166        0.81319521367702
H           -0.39696957243212       -0.37459312707159        2.38601493480151
26
 energy: -41.804611818252 gnorm: 0.035724788110 xtb: 6.7.1 (edcfbbe)
O            2.91256137128653       -0.73996433567224       -1.48788257726266
C            2.11504771599928       -0.75199907028813       -0.54930945020251
C            0.84704115744840       -1.46760127583940       -0.56591020846822
C           -0.08461478983640       -1.32378691539991        0.43807688759196
C           -1.45659853273283       -1.92044379794547        0.35925096577652
C           -2.45845776778688       -1.03776726770991       -0.40413987023779
C           -2.56768747747767        0.41135381075185        0.09740771007503
C           -1.48474765428744        1.27345784166826       -0.52466008863267
O           -1.47949410479272        1.47892981928941       -1.72594492333515
C           -0.47169516256964        1.86164901724270        0.37527081515528
C            0.72116477052082        2.20859167639712       -0.10985100727536
C            2.29981007812496        0.00135837046648        0.65672880650798
O            1.43330511386295        0.03550197911085        1.63763100040357
C            0.25907680731237       -0.53997688733324        1.54595081432381
H            0.62855753462468       -2.05103672417952       -1.44597289404157
H           -1.40748161077739       -2.87875505985042       -0.15885312914022
H           -1.83423511607636       -2.09133610106310        1.36857783940132
H           -3.43776929850330       -1.51086496262333       -0.30876514453172
H           -2.19915655392078       -1.00741410757680       -1.46560108004048
H           -2.55473457859116        0.45875205216629        1.18753964509163
H           -3.52301669026468        0.80083654091490       -0.26677574203332
H           -0.78306365996023        2.10119373769911        1.39146916153526
H            0.95653696366318        2.02314915496541       -1.15385991349961
H            1.45877905822189        2.76678416048904        0.47195665484219
H            3.14530667040684        0.63415156146935        0.80679832990384
H           -0.37845824389439       -0.35518421714930        2.37008039809306
26
 energy: -41.806281377343 gnorm: 0.042863074973 xtb: 6.7.1 (edcfbbe)
O            2.91516103223940       -0.76389080135715       -1.48140248271760
C            2.09411738270432       -0.72879851796736       -0.56323762473341
C            0.82174992701199       -1.43531045108620       -0.57975733753305
C           -0.10013890793979       -1.29773814265677        0.42836216951277
C           -1.46151027357851       -1.91657751994947        0.36489772942880
C           -2.46172055136355       -1.04250121146723       -0.40841509870178
C           -2.55826074102087        0.40662593754990        0.09699216205544
C           -1.47864487495130        1.26236335712123       -0.54323736526694
O           -1.46879899230303        1.45023238436694       -1.74628994305212
C           -0.49118999198416        1.88699478560566        0.34737975181191
C            0.70483808361339        2.24121850038507       -0.11766767457458
C            2.29259273904815        0.00725725769259        0.65111182227707
O            1.43936917442215        0.05495633771383        1.65625891361515
C            0.26100948447018       -0.53931763522898        1.54173235860411
H            0.60120718074286       -2.02420024185446       -1.45395001860242
H           -1.40180589858604       -2.88026462797217       -0.14141190543426
H           -1.83450630829258       -2.08053521047911        1.37676915076090
H           -3.44327168510108       -1.51455179398346       -0.33283130304245
H           -2.18076809925327       -1.00782045999917       -1.46449216519841
H           -2.52063373332172        0.45303749044708        1.18645836796214
H           -3.51572957286033        0.80864177022903       -0.23994029430321
H           -0.78314858608129        2.05530977372575        1.35732502507148
H            0.95338203388335        2.05113664004250       -1.14223216678211
H            1.44206000478670        2.74076775580297        0.48612049969715
H            3.19323053022540        0.59850223882241        0.82654197957145
H           -0.36261335651035       -0.40595861550340        2.43412844957430
26
 energy: -41.807354855071 gnorm: 0.025516290009 xtb: 6.7.1 (edcfbbe)
O            2.92026768627310       -0.77586821991130       -1.47688009238453
C            2.09434334486869       -0.73961766806501       -0.55859901444734
C            0.81571536264652       -1.43182892416100       -0.57836050639791
C           -0.09812519363208       -1.30151656008007        0.43924767831311
C           -1.46387342617809       -1.91569006813703        0.37469185177048
C           -2.45912731129042       -1.04510152686766       -0.41063604618808
C           -2.55181706041402        0.40452467433254        0.09259239816482
C           -1.47767717294715        1.26455140312931       -0.55284799563912
O           -1.45580929476138        1.43598060336835       -1.75842392838725
C           -0.49670739577873        1.89859604343207        0.34309993859495
C            0.70167448707097        2.26365886783846       -0.11281679771932
C            2.29170787811848        0.01821153873650        0.65296517014161
O            1.42513673045513        0.05154617212552        1.63010007271542
C            0.26383026232795       -0.54687304780804        1.55460878742714
H            0.58494982034823       -2.01459394222827       -1.46076881315663
H           -1.40226247840418       -2.88317968140574       -0.12455905802025
H           -1.84075689840872       -2.07216508297360        1.38651828765513
H           -3.44115829951499       -1.51584679192921       -0.34126577253206
H           -2.17312981901835       -1.01485866445810       -1.46434388951656
H           -2.50525053594259        0.44638496510258        1.18063838387639
H           -3.51223711822535        0.81108636877431       -0.23226211884987
H           -0.79336113089345        2.05567115832697        1.35781890833348
H            0.95579456201152        2.08582794173186       -1.14190276591346
H            1.43719472512196        2.71465929948013        0.49802775243529
H            3.19157999558947        0.59590241098360        0.81829332622089
H           -0.35492571942250       -0.40988226933721        2.42427724350394
26
 energy: -41.808227116951 gnorm: 0.019597392784 xtb: 6.7.1 (edcfbbe)
O            2.91381085225883       -0.77961427092519       -1.48047321485897
C            2.08309809110191       -0.73594077240103       -0.56352876667317
C            0.79783942086233       -1.41115809671448       -0.58842912074971
C           -0.10439236109179       -1.29541498405792        0.44392581023005
C           -1.46986885760034       -1.91419150554269        0.38448857575393
C           -2.46028264077152       -1.05061316533056       -0.41447777448996
C           -2.54698076310842        0.39968611761388        0.08462587767583
C           -1.47439971598379        1.25551519923027       -0.56752415735317
O           -1.43264082065069        1.39761209719341       -1.77914052172006
C           -0.49884762114057        1.90057435037556        0.32961565989462
C            0.70070724389283        2.27388755222134       -0.11211320257769
C            2.29170301594138        0.00929635075025        0.64650340067299
O            1.43783843211899        0.03129092350525        1.63372166133986
C            0.27021600322640       -0.55365281130765        1.56152501760664
H            0.56735989326080       -1.99855456910377       -1.46336605379592
H           -1.40502876497090       -2.88753761291362       -0.10372403696257
H           -1.84965084031745       -2.05844775006849        1.39739687188961
H           -3.44258557976868       -1.51914882754280       -0.34858134743041
H           -2.16869041478329       -1.02835126705812       -1.46600724111941
H           -2.48888176810496        0.44109911440458        1.17135452681926
H           -3.50882576877747        0.81167060603333       -0.22996103356572
H           -0.81804439622171        2.07806630888343        1.35776795936005
H            0.97137268069562        2.11217063522117       -1.14182569756268
H            1.42768187497098        2.76505151806384        0.51686594580044
H            3.20054845239253        0.56830873141581        0.82469231319973
H           -0.33707964743101       -0.43202487194580        2.44588154861680
26
 energy: -41.808578417761 gnorm: 0.016195028532 xtb: 6.7.1 (edcfbbe)
O            2.91205290634533       -0.79688468591526       -1.47538021761384
C            2.07089389824468       -0.73442032618700       -0.56851053642558
C            0.78212186348523       -1.39571537891095       -0.59459818332371
C           -0.11013140957017       -1.29235626200905        0.44739502790006
C           -1.47590345862999       -1.91325182932099        0.39315771016451
C           -2.45967728718339       -1.05728571363379       -0.42196542241185
C           -2.53938363900728        0.39320387410879        0.07493400160897
C           -1.46968707849519        1.24651351387735       -0.58232926827112
O           -1.42268653255397        1.38289029625156       -1.78592366226929
C           -0.50506493598113        1.90636306079318        0.32370436981149
C            0.69019956484337        2.30156029484890       -0.10914315584069
C            2.28521489052511        0.00047415700501        0.64652523744689
O            1.44504497177280        0.03092173998720        1.64027299730356
C            0.27644514884852       -0.55037799686057        1.57023123838891
H            0.54834857777096       -1.98367208310711       -1.46737121344137
H           -1.40848644908256       -2.89533792883322       -0.07775220214891
H           -1.85998271029725       -2.03978998118766        1.40728448490329
H           -3.44372245951133       -1.52165435280592       -0.35938612770362
H           -2.15932626065624       -1.04333744426173       -1.47108230793622
H           -2.46660939092698        0.43275603961442        1.16087843590823
H           -3.50308293428297        0.81235809123215       -0.22572181044167
H           -0.80712860729525        2.04035170941348        1.34939235221203
H            0.97217472056443        2.16336755311365       -1.15116465106632
H            1.41449084526237        2.80020234827648        0.53043338698564
H            3.21145998720492        0.53489411296964        0.82835408768197
H           -0.32159822139402       -0.44219380845857        2.45697842857903
26
 energy: -41.808769358881 gnorm: 0.019620826260 xtb: 6.7.1 (edcfbbe)
O            2.91074909946112       -0.81137262266155       -1.47316537839668
C            2.06386366305008       -0.73756080177157       -0.57208163301205
C            0.76832170644532       -1.38110221932887       -0.60147647714345
C           -0.11404348173407       -1.28535697538005        0.44710400209411
C           -1.47933906456126       -1.90887657030412        0.40066950933939
C           -2.45927674864916       -1.06135453718297       -0.42533878019330
C           -2.53366073007501        0.39011221894298        0.06842781295967
C           -1.46405456811053        1.23813441879009       -0.59334588208248
O           -1.39673171024283        1.34050675340394       -1.80437171134741
C           -0.51631788972900        1.92688357592201        0.30817630398366
C            0.67945299460667        2.33222515288366       -0.11339945898555
C            2.28669608755320       -0.00235823584787        0.64706460376795
O            1.45575445462002        0.02038917905961        1.64920331862488
C            0.28681941968061       -0.56110664249717        1.57689125235148
H            0.52214353709829       -1.96097349971893       -1.48249583616756
H           -1.41029116792616       -2.89945987826831       -0.05278334779249
H           -1.86520942051465       -2.01867726355212        1.41599886087387
H           -3.44472995323752       -1.52318921812356       -0.36616855679302
H           -2.15081630239920       -1.05529214001550       -1.47243632709688
H           -2.45487469328990        0.43248676956747        1.15260286940307
H           -3.49540181703032        0.81307397899348       -0.22815989676828
H           -0.81575673760773        2.04923926917894        1.33751857080780
H            0.98518215303125        2.17852154933221       -1.12302633988157
H            1.39217719346424        2.82226277983669        0.54076998683016
H            3.20704830499042        0.51571366339991        0.82046020582265
H           -0.30172832889387       -0.47328970465844        2.48257532880244
26
 energy: -41.808950074676 gnorm: 0.020015787262 xtb: 6.7.1 (edcfbbe)
O            2.90198983620092       -0.80383824643007       -1.47832422052409
C            2.05812665372425       -0.73080310244452       -0.57532965001981
C            0.76079638671322       -1.36866538639160       -0.60391081923336
C           -0.11705655318173       -1.27724475491826        0.44748094915333
C           -1.47975058144479       -1.90487297974736        0.40513878423904
C           -2.46032169176987       -1.06472591409833       -0.42505245841426
C           -2.53355194922606        0.38832817150211        0.06435238081540
C           -1.45989506782893        1.23103261811592       -0.59628674367572
O           -1.37905855179507        1.31701696476988       -1.81072675931253
C           -0.51946517559359        1.93129794797949        0.30440870987798
C            0.67386472112421        2.34637446236570       -0.11240783630321
C            2.29303145472096       -0.01248075861715        0.64710038186990
O            1.46505103795811        0.00007681242707        1.65877636320827
C            0.28488550289751       -0.57330376524895        1.58327009258902
H            0.50905505211877       -1.94306432067631       -1.48869656740530
H           -1.40825766975364       -2.89895831029705       -0.03957660728063
H           -1.86449632841850       -2.00755781570856        1.42098345506517
H           -3.44563452774280       -1.52730464659510       -0.36550999552170
H           -2.14989587725450       -1.06259175849686       -1.47171336056536
H           -2.45842955516797        0.43329421754986        1.14776899245691
H           -3.49231007315589        0.81150717515788       -0.23685845606484
H           -0.82914570087793        2.06566781739973        1.33803286358412
H            0.97875350939441        2.20538045505268       -1.13622980895044
H            1.38176822039667        2.81379667037639        0.54287567546259
H            3.24110004216328        0.49252641842433        0.83384434490583
H           -0.29517711420107       -0.48130897145097        2.48580329004419
26
 energy: -41.809085520137 gnorm: 0.015365744042 xtb: 6.7.1 (edcfbbe)
O            2.89799681682099       -0.79396065822237       -1.48192205146516
C            2.06273820000583       -0.73548439180196       -0.57098504742460
C            0.76273619563897       -1.37127650099976       -0.60224107603720
C           -0.11541182060756       -1.28181285535435        0.45030608911384
C           -1.48036731599396       -1.90437896903105        0.40679813578292
C           -2.46078245359234       -1.06435138156651       -0.42424558762023
C           -2.53413283409101        0.39055075528835        0.05979540435595
C           -1.45620084356773        1.22982825327623       -0.59801936462908
O           -1.37831663158396        1.32728897073754       -1.80463675998630
C           -0.51371305934099        1.92320106752144        0.30915209711016
C            0.67626889220571        2.34458947555368       -0.11130636739889
C            2.29980994189062       -0.01424586905162        0.65071821753044
O            1.46496974976223       -0.00608100943310        1.65389836813673
C            0.28952267586840       -0.58138198232232        1.58530414970904
H            0.51253469066904       -1.94382827841175       -1.48472181395166
H           -1.41149114513124       -2.89777026994568       -0.03820500905608
H           -1.86558324968284       -2.00663198204627        1.42222890987711
H           -3.44638283859423       -1.52589927261148       -0.36000296757873
H           -2.15542767868839       -1.06350330345074       -1.47196005444465
H           -2.46475784114466        0.43692368058419        1.14425834337591
H           -3.49192964569760        0.81332467991947       -0.24766454098308
H           -0.82323748807129        2.05578978969128        1.33805005767736
H            0.97556971125217        2.21391415829247       -1.15036165082058
H            1.38128192152907        2.82965240369810        0.54024702132661
H            3.22654808767600        0.50101611853444        0.82893108793327
H           -0.29626603753125       -0.49589362884823        2.49579740946740
26
 energy: -41.809128377621 gnorm: 0.018730680701 xtb: 6.7.1 (edcfbbe)
O            2.88981143631958       -0.78380193577268       -1.49156228073584
C            2.06234625544907       -0.73721399279768       -0.57345601845911
C            0.76371359213221       -1.37461885179475       -0.60226793640731
C           -0.11198002724117       -1.29334937078247        0.45593350235556
C           -1.48140376826568       -1.90683199787274        0.41101822089380
C           -2.46028978383050       -1.06549512084424       -0.42133659597900