26
 energy: -41.810289787821 gnorm: 0.000419622401 xtb: 6.7.1 (edcfbbe)
O            2.80436397712834       -0.77180602957453       -1.56940374920684
C            2.01338730800096       -0.73939409171538       -0.61954946403373
C            0.71145968191771       -1.37193067396149       -0.60760090525581
C           -0.12688922884977       -1.29796781706532        0.47840312297976
C           -1.50141045117557       -1.90258248932512        0.46993290432663
C           -2.46788090080533       -1.09628929836412       -0.40915908721926
C           -2.50249377891995        0.38500363858801       -0.01639293480859
C           -1.32719016647078        1.13233356385697       -0.62009262475543
O           -1.06503628827018        1.05069059147002       -1.80285570259957
C           -0.53363464069527        1.96688016328229        0.30792830575640
C            0.64966074787050        2.45830076167270       -0.04633487379725
C            2.30547788721985       -0.05976765060044        0.61636864996019
O            1.50260547386654       -0.04236872017576        1.64350613885635
C            0.32277212320932       -0.60991548509112        1.60865849765471
H            0.41446593459156       -1.90338642249365       -1.49941175846137
H           -1.44760466785953       -2.92120552038323        0.08297731732845
H           -1.88662923401787       -1.94090382275123        1.48996629735170
H           -3.46446203875733       -1.52859879066389       -0.31412334122102
H           -2.16428639013290       -1.16362841041927       -1.45528231495254
H           -2.52960307531427        0.49799138704130        1.06670188196723
H           -3.40502290761134        0.83730238270037       -0.43548053042756
H           -0.95160848718537        2.14854141912191        1.28750386059955
H            1.04741276061427        2.25859984064897       -1.02897164056289
H            1.24854158903103        3.06029856227968        0.61562287269704
H            3.24488062280038        0.45168556317577        0.76941619034473
H           -0.23529985018485       -0.51830365125345        2.52688588747987
