26
 energy: -41.439983915290 gnorm: 0.810043954027 xtb: 6.7.1 (edcfbbe)
O            2.93259500000000       -0.67839100000000       -1.43445400000000
C            2.04892100000000       -0.58405800000000       -0.59853400000000
C            0.86797500000000       -1.46479800000000       -0.55394000000000
C           -0.12595100000000       -1.21891600000000        0.32902400000000
C           -1.46056200000000       -1.90172100000000        0.31302600000000
C           -2.53781400000000       -1.05870800000000       -0.40356200000000
C           -2.64122700000000        0.40188500000000        0.08235800000000
C           -1.42460000000000        1.20392100000000       -0.35168000000000
O           -1.37928100000000        1.72990100000000       -1.44504500000000
C           -0.47055409700000        2.12370809610000        0.20132216040000
C            0.49882577090000        2.40656204440000       -0.26816274170000
C            2.62877722910000       -0.18786704440000        0.72291974170000
O            1.44674400000000        0.04142100000000        1.64796800000000
C            0.28493209700000       -0.92601709610000        1.74353383960000
H            0.80281900000000       -2.26384900000000       -1.29761700000000
H           -1.37879100000000       -2.87596700000000       -0.19130200000000
H           -1.78370600000000       -2.08830900000000        1.35105800000000
H           -3.51379800000000       -1.54840100000000       -0.26533300000000
H           -2.33242800000000       -1.05133500000000       -1.48609200000000
H           -2.76244100000000        0.43291200000000        1.17707300000000
H           -3.52334200000000        0.86963500000000       -0.37803700000000
H           -0.56572100000000        1.99288800000000        1.41338900000000
H            1.02056100000000        1.79093500000000       -1.08276700000000
H            1.44974300000000        2.63577100000000        0.42129900000000
H            3.06467900000000        0.85621500000000        0.65144200000000
H           -0.49037900000000       -0.25789000000000        2.24129800000000
26
 energy: -41.664185085781 gnorm: 0.269520574597 xtb: 6.7.1 (edcfbbe)
O            2.93058040997867       -0.66771413824448       -1.47165842161011
C            2.08803335383084       -0.65248652052679       -0.57399509170077
C            0.86749320770866       -1.46613639671512       -0.56436017769777
C           -0.11633616469193       -1.26086853637532        0.35720100690459
C           -1.46707495359643       -1.90753730438099        0.31456885372963
C           -2.53704918744100       -1.06084320348698       -0.40694232868484
C           -2.63983042882304        0.39418633957466        0.08509331906830
C           -1.47402204604386        1.23369829476555       -0.37107647631455
O           -1.42311425574278        1.70025140397996       -1.51573297112363
C           -0.50147862835492        2.05661082497476        0.29722740617523
C            0.61974373144692        2.37915003788849       -0.25254929674813
C            2.54432972755366       -0.13570032103382        0.73413102102700
O            1.46507162038039        0.01775530585605        1.67537230279255
C            0.29986743996480       -0.83066765847467        1.69181291341685
H            0.79126693370168       -2.24280826668920       -1.31868680222289
H           -1.38371818758581       -2.87461982393145       -0.19227241537804
H           -1.78647337512912       -2.08880374507185        1.34726358011592
H           -3.50989642686865       -1.54666178061147       -0.26545593871972
H           -2.33168521571503       -1.04988579345244       -1.48401708589467
H           -2.75832670151404        0.43167745698983        1.17464365653421
H           -3.51815510506778        0.86460185210890       -0.37594157352576
H           -0.58545545471008        2.02664035413049        1.43470730291497
H            1.02321596432383        1.82079816806911       -1.11880319720120
H            1.46239938799318        2.67137703977321        0.41312491051355
H            3.07467527469428        0.83934728143079        0.66858902263555
H           -0.47808392029246       -0.27183387054718        2.25694148099373
26
 energy: -41.759747429835 gnorm: 0.117481202674 xtb: 6.7.1 (edcfbbe)
O            2.92487755347693       -0.66452515531610       -1.48993546277922
C            2.11770001294000       -0.71574758515270       -0.55158276127792
C            0.87819691882630       -1.48087823398741       -0.56549820947805
C           -0.09103190746332       -1.30638799277630        0.38912374071379
C           -1.46590214669863       -1.91113903430934        0.32061510007263
C           -2.52716798919196       -1.05750614149830       -0.40764471936121
C           -2.62428655817308        0.39763594430502        0.08568285650099
C           -1.50201692685848        1.28049031196614       -0.40786994145710
O           -1.45661516646450        1.66671802802428       -1.58534164808278
C           -0.48213908579329        1.98374947849356        0.37067946778801
C            0.67108424470270        2.31980927455195       -0.20332173084532
C            2.42592994258707       -0.08672922427642        0.74204112800307
O            1.46908460649723        0.00107496349013        1.67327863650288
C            0.32892741634625       -0.71517120613612        1.62569452834740
H            0.76836845211151       -2.20814657199718       -1.35819913763521
H           -1.39236299586288       -2.87257419408612       -0.19178467491386
H           -1.79391044766038       -2.08975099960498        1.34544497220354
H           -3.49898219265719       -1.54127780814746       -0.26386765640214
H           -2.32605224911992       -1.04653299265970       -1.48108272224544
H           -2.74347636308494        0.43153771476016        1.17131709356654
H           -3.51363686795901        0.85237691602089       -0.36895904470263
H           -0.59089748474048        2.06635969049232        1.43365274797681
H            0.99139761252101        1.86027064551637       -1.14139832647538
H            1.45270099240480        2.70236014566858        0.40908074359994
H            3.08662793532823        0.80336784858971        0.70521191207249
H           -0.45044030601396       -0.28985682193098        2.28384810830818
26
 energy: -41.790327403603 gnorm: 0.065764018527 xtb: 6.7.1 (edcfbbe)
O            2.91748886448276       -0.67852557437235       -1.48762690573287
C            2.12378699429254       -0.74240124674471       -0.54618670352510
C            0.89276479143503       -1.50012508329720       -0.55546536197813
C           -0.06872502986436       -1.32849801384824        0.40877999042063
C           -1.45603008694861       -1.91115321175323        0.32908686097501
C           -2.50458219445049       -1.04971025808983       -0.40707340450569
C           -2.61271568808051        0.40398852980451        0.08431824574825
C           -1.51151570480011        1.29183982264852       -0.45181697295917
O           -1.49044035292659        1.62839059904226       -1.62944114172375
C           -0.46348227512885        1.90541396385423        0.40121635036251
C            0.70232023565336        2.25216193417287       -0.17042200661758
C            2.34267512842974       -0.05197552270730        0.71854560800452
O            1.46276728421521       -0.02092815912879        1.66204573110956
C            0.31918744380998       -0.63507046834903        1.57761009023962
H            0.73216788326191       -2.16027817327950       -1.40690638459652
H           -1.39835267070143       -2.87056717253455       -0.18789539902318
H           -1.80286857518568       -2.08776104097601        1.34748930480710
H           -3.47636275732844       -1.53110269342952       -0.26050240158954
H           -2.30625156424737       -1.04037410051176       -1.47946471667894
H           -2.70833764391705        0.43686754987265        1.17003441844156
H           -3.52194078965042        0.83393661621595       -0.35480442384878
H           -0.63974902007413        2.11915501248263        1.45959487325809
H            0.97338315312692        1.90378913419297       -1.17316563570523
H            1.46837925510630        2.75878334410820        0.41753248817228
H            3.10500433659998        0.75681840243237        0.75548190459501
H           -0.42259401710967       -0.30314718980513        2.31822059235039
26
 energy: -41.798650502711 gnorm: 0.049112817043 xtb: 6.7.1 (edcfbbe)
O            2.90669457852399       -0.68411038534722       -1.49861383577537
C            2.12643217253165       -0.75431094370905       -0.54392911935122
C            0.88420370534724       -1.49558414206571       -0.55544759150584
C           -0.06905264211317       -1.32732247526140        0.42014362850981
C           -1.45124076927577       -1.91310466936039        0.34030333723562
C           -2.47999039812008       -1.04131339526559       -0.40479772604807
C           -2.59492798841589        0.41189671164122        0.08485661714527
C           -1.51063254310114        1.30559394141970       -0.48686629420318
O           -1.50628777836497        1.58826835823202       -1.67349254709912
C           -0.46802268296029        1.88864084694601        0.40189204801387
C            0.70902831011022        2.23914226674177       -0.14792451513659
C            2.31702395083741       -0.02410780739420        0.68604078008758
O            1.47883722222741       -0.04345472138760        1.69001080926239
C            0.28718414349172       -0.58629166751450        1.55103811414758
H            0.68722187353250       -2.10789539369617       -1.43743690216512
H           -1.40126679387327       -2.87159062199672       -0.17857790743795
H           -1.81255820989246       -2.08626483797698        1.35476480970791
H           -3.45166177563048       -1.52190231995334       -0.26497350847748
H           -2.26952191178857       -1.03116204886310       -1.47489921767102
H           -2.65383017602667        0.44996790290012        1.17230935346500
H           -3.52945456570305        0.81053165914245       -0.33183242844356
H           -0.68259766328820        2.09763717618404        1.42663516680011
H            0.95944080569340        1.95448779427206       -1.15983738635450
H            1.46518811789291        2.72769440133117        0.41631246330995
H            3.12304265238321        0.71798436151909        0.79381348229788
H           -0.40727463401763       -0.32390299053766        2.35969336968621
26
 energy: -41.802977204477 gnorm: 0.052735328972 xtb: 6.7.1 (edcfbbe)
O            2.91443235621921       -0.71651165050000       -1.49060377192838
C            2.12446468334791       -0.75403489225726       -0.54802027071722
C            0.86239264201867       -1.47575184734983       -0.56625646809770
C           -0.07638621480136       -1.32637826507459        0.43322171754907
C           -1.45207923837040       -1.91748016770568        0.35336525639565
C           -2.46247786055181       -1.03590717112227       -0.40109230194756
C           -2.57878486908413        0.41522105764002        0.09309898955609
C           -1.49758750180317        1.29299233708184       -0.51061210271797
O           -1.49565569004653        1.51947496695321       -1.70921525595025
C           -0.46553908774211        1.86232376116520        0.39323408813246
C            0.72467369919651        2.20734666176841       -0.11955029534989
C            2.28819386917798       -0.00180026524230        0.66537389751228
O            1.41807332663779        0.03472349027924        1.61828901182754
C            0.27544166594468       -0.54927907754543        1.53687302956061
H            0.65631238946478       -2.07300022421803       -1.43882503443418
H           -1.40541923801117       -2.87349853937435       -0.16980510946155
H           -1.82551932465946       -2.09190611032731        1.36347063902968
H           -3.43746553500171       -1.51276713183481       -0.28286629085567
H           -2.22722217072739       -1.01551236187371       -1.46723455317636
H           -2.59460793222230        0.46097383864376        1.18244324747109
H           -3.53032133175014        0.79754130997456       -0.29636248243120
H           -0.75512393548310        2.11598961193441        1.40956595870917
H            0.95839744681482        1.99187442322630       -1.15198948606315
H            1.46731448337834        2.74574264062042        0.44347330997097
H            3.16744202604898        0.65374655410674        0.81319806405184
H           -0.39697165799482       -0.37459594896857        2.38601121336484
26
 energy: -41.804611599424 gnorm: 0.035725167091 xtb: 6.7.1 (edcfbbe)
O            2.91257105354751       -0.73995648896284       -1.48787777235140
C            2.11505439951165       -0.75199287882164       -0.54930728480117
C            0.84705038176667       -1.46759964054590       -0.56591132812493
C           -0.08460894527930       -1.32378787412344        0.43807310588401
C           -1.45659005816391       -1.92045046756318        0.35924479994581
C           -2.45845613561914       -1.03777509287542       -0.40413870879382
C           -2.56769075500275        0.41134457551345        0.09741198148385
C           -1.48475699899705        1.27345536152804       -0.52465717207748
O           -1.47951192929216        1.47893458617038       -1.72594097838910
C           -0.47170007917025        1.86164524760750        0.37527002676773
C            0.72115757769873        2.20858882143705       -0.10985756955345
C            2.29980969157257        0.00136699811238        0.65673044777254
O            1.43330199695828        0.03550780331734        1.63762961808382
C            0.25907687457910       -0.53997601987394        1.54594762294361
H            0.62857189029090       -2.05103665155668       -1.44597399057552
H           -1.40746884819295       -2.87875804240141       -0.15886573679227
H           -1.83422405826503       -2.09135162478585        1.36857117482481
H           -3.43776531987044       -1.51087710763603       -0.30876002678927
H           -2.19916074986686       -1.00741869409501       -1.46560138371967
H           -2.55473599549515        0.45874100962413        1.18754396375671
H           -3.52302272630155        0.80082311584038       -0.26676905745981
H           -0.78306556243961        2.10119396033968        1.39146896399402
H            0.95652582527553        2.02314307679716       -1.15386700069541
H            1.45877328679256        2.76678479421822        0.47194502198131
H            3.14530277355400        0.63416456901777        0.80680091424790
H           -0.37846058959128       -0.35518633628217        2.37007536843739
26
 energy: -41.806281219306 gnorm: 0.042863463210 xtb: 6.7.1 (edcfbbe)
O            2.91516992397441       -0.76388180312861       -1.48139836105127
C            2.09412354083524       -0.72879195239912       -0.56323592673436
C            0.82175913524833       -1.43530910400510       -0.57975844956758
C           -0.10013318468756       -1.29773927225454        0.42835824987388
C           -1.46150190863737       -1.91658421243970        0.36489160793953
C           -2.46171870749630       -1.04250890259013       -0.40841411436323
C           -2.55826403223096        0.40661678227618        0.09699655265620
C           -1.47865438881748        1.26236083277105       -0.54323450130813
O           -1.46881722824983        1.45023688413298       -1.74628630989784
C           -0.49119514495921        1.88699110805167        0.34737874939428
C            0.70483081416258        2.24121514092907       -0.11767445290232
C            2.29259284679157        0.00726558990750        0.65111317739649
O            1.43936705411311        0.05496112880273        1.65625880267112
C            0.26100945853495       -0.53931686508015        1.54172904270650
H            0.60122198471260       -2.02420103937450       -1.45395066074173
H           -1.40179383164013       -2.88026809356500       -0.14142391986993
H           -1.83449539536944       -2.08055001608076        1.37676269391876
H           -3.44326764233780       -1.51456382815558       -0.33282684928211
H           -2.18077153588097       -1.00782440305834       -1.46449259391890
H           -2.52063486479965        0.45302655123170        1.18646285021494
H           -3.51573564530653        0.80862835201826       -0.23993339804172
H           -0.78315014768883        2.05530883135009        1.35732447586084
H            0.95337093187178        2.05113061791460       -1.14223950578223
H            1.44205474959464        2.74076891355493        0.48610950502259
H            3.19322642259034        0.59851606857152        0.82654489164410
H           -0.36261620432739       -0.40596030938080        2.43412344416245
26
 energy: -41.807354730148 gnorm: 0.025516536149 xtb: 6.7.1 (edcfbbe)
O            2.92027636931425       -0.77585903426811       -1.47687604186213
C            2.09434930319765       -0.73961093329763       -0.55859721516590
C            0.81572416789921       -1.43182733136165       -0.57836160578400
C           -0.09811961466388       -1.30151753132272        0.43924397596724
C           -1.46386514647028       -1.91569674534956        0.37468607863386
C           -2.45912525765601       -1.04510923955654       -0.41063530937023
C           -2.55182000538485        0.40451545849702        0.09259673249451
C           -1.47768656391470        1.26454861804667       -0.55284586344781
O           -1.45582776581228        1.43598498301377       -1.75842087745110
C           -0.49671299477387        1.89859260188257        0.34309844060491
C            0.70166680864844        2.26365611611747       -0.11282356879266
C            2.29170785554922        0.01822030327724        0.65296665788158
O            1.42513463909191        0.05155134215383        1.63010030212632
C            0.26383018761210       -0.54687198557507        1.55460571319345
H            0.58496331129092       -2.01459383917803       -1.46077042301844
H           -1.40225033950933       -2.88318331838751       -0.12457038537477
H           -1.84074627264252       -2.07217946425654        1.38651224177406
H           -3.44115408667868       -1.51585884554631       -0.34126226511026
H           -2.17313229720964       -1.01486239947420       -1.46434433194639
H           -2.50525038505598        0.44637387036514        1.18064279180716
H           -3.51224311736635        0.81107300991528       -0.23225429623149
H           -0.79336299091178        2.05566882482635        1.35781792337169
H            0.95578292361408        2.08582347079425       -1.14191059792377
H            1.43718942727496        2.71465745408011        0.49801733595655
H            3.19157712694836        0.59591567851352        0.81829658874185
H           -0.35492828239085       -0.40988406390940        2.42427299892609
26
 energy: -41.808227019274 gnorm: 0.019597748684 xtb: 6.7.1 (edcfbbe)
O            2.91381944941195       -0.77960536725430       -1.48046926205745
C            2.08310386395471       -0.73593394756721       -0.56352709685748
C            0.79784754086793       -1.41115594205923       -0.58843050995342
C           -0.10438698885901       -1.29541569857479        0.44392234285787
C           -1.46986069156493       -1.91419809563625        0.38448331845827
C           -2.46028030414343       -1.05062087214152       -0.41447722008074
C           -2.54698333232431        0.39967686654713        0.08463025482669
C           -1.47440902903831        1.25551226993343       -0.56752275209133
O           -1.43265872024924        1.39761486913141       -1.77913887847439
C           -0.49885374861449        1.90057134976751        0.32961342354565
C            0.70069947845271        2.27388499978576       -0.11211979377587
C            2.29170288987427        0.00930527951991        0.64650493101154
O            1.43783591283156        0.03129694556920        1.63372122437037
C            0.27021613360640       -0.55365163422400        1.56152204803887
H            0.56737216001019       -1.99855371679996       -1.46336804172541
H           -1.40501655007990       -2.88754139783924       -0.10373444747294
H           -1.84964058241345       -2.05846151992957        1.39739143400199
H           -3.44258111038234       -1.51916086704151       -0.34857899929904
H           -2.16869160455453       -1.02835480858669       -1.46600760226369
H           -2.48888028996084        0.44108797049323        1.17135884313984
H           -3.50883166952391        0.81165722957617       -0.22995212409675
H           -0.81804782232113        2.07806453820867        1.35776686657565
H            0.97136129211943        2.11216681932542       -1.14183252869848
H            1.42767623416238        2.76504793866385        0.51685606314378
H            3.20054590794373        0.56832105198236        0.82469551652359
H           -0.33708141920532       -0.43202726084985        2.44587799035327
26
 energy: -41.808578308914 gnorm: 0.016196465221 xtb: 6.7.1 (edcfbbe)
O            2.91206060219877       -0.79687573087019       -1.47537663295954
C            2.07089864213969       -0.73441290262656       -0.56850938708353
C            0.78212877069428       -1.39571196123049       -0.59459983925361
C           -0.11012648550870       -1.29235664768038        0.44739221639460
C           -1.47589571977409       -1.91325829545076        0.39315334655227
C           -2.45967471998189       -1.05729373376971       -0.42196544873955
C           -2.53938585687543        0.39319431804818        0.07493771327886
C           -1.46969659955152        1.24651050110664       -0.58232896811889
O           -1.42270390446757        1.38289184067002       -1.78592293902678
C           -0.50507121740964        1.90635980942843        0.32370183593972
C            0.69019163582953        2.30155814823603       -0.10914926995906
C            2.28521448357657        0.00048224728851        0.64652641040662
O            1.44504280114319        0.03092687822231        1.64027251797819
C            0.27644529349362       -0.55037679920663        1.57022899505172
H            0.54835990629094       -1.98367067557033       -1.46737230680908
H           -1.40847436887805       -2.89534219598554       -0.07776069936921
H           -1.85997340576496       -2.03980239979158        1.40728008962300
H           -3.44371779641619       -1.52166659356123       -0.35938514449370
H           -2.15932612726693       -1.04334165793206       -1.47108296217236
H           -2.46660633546740        0.43274433524788        1.16088188298843
H           -3.50308879476834        0.81234462112990       -0.22571224028644
H           -0.80713144139710        2.04034684445567        1.34939081898797
H            0.97216315597719        2.16336725156503       -1.15117329488258
H            1.41448484544609        2.80020212156264        0.53042497833877
H            3.21145866408673        0.53490398322726        0.82835799322421
H           -0.32159902734863       -0.44219630651316        2.45697533439035
26
 energy: -41.808769273031 gnorm: 0.019621276998 xtb: 6.7.1 (edcfbbe)
O            2.91075627740788       -0.81136292036686       -1.47316230763725
C            2.06386869225268       -0.73755381086895       -0.57208033559729
C            0.76832920368889       -1.38110001701836       -0.60147751563960
C           -0.11403826229245       -1.28535802021924        0.44710149909425
C           -1.47933127500812       -1.90888318179143        0.40066513481254
C           -2.45927384697583       -1.06136231561439       -0.42533889909732
C           -2.53366309232264        0.39010288308664        0.06843159274183
C           -1.46406455851528        1.23813222372356       -0.59334528963814
O           -1.39675009096566        1.34051001804706       -1.80437091301530
C           -0.51632406670232        1.92688020983632        0.30817412008484
C            0.67944538684856        2.33222186582421       -0.11340568353800
C            2.28669584589382       -0.00234978456112        0.64706583540552
O            1.45575208752906        0.02039467626366        1.64920244131085
C            0.28681968232195       -0.56110521246039        1.57688906920941
H            0.52215547064047       -1.96097338919329       -1.48249632166296
H           -1.41027926503131       -2.89946421086079       -0.05279218441422
H           -1.86520034610534       -2.01868999064308        1.41599443109495
H           -3.44472495374641       -1.52320128211853       -0.36616805316009
H           -2.15081556495532       -1.05529585008962       -1.47243702980351
H           -2.45487204837272        0.43247516226269        1.15260630391732
H           -3.49540788362998        0.81306038698323       -0.22815035211294
H           -0.81575864648547        2.04923366208731        1.33751721329787
H            0.98517103325018        2.17851951413259       -1.12303394407937
H            1.39217174664984        2.82226226024012        0.54076131801273
H            3.20704519105100        0.51572521906465        0.82046297636101
H           -0.30172971642529       -0.47329109574613        2.48257189405334
26
 energy: -41.808949994240 gnorm: 0.020016519126 xtb: 6.7.1 (edcfbbe)
O            2.90199641369241       -0.80382811356591       -1.47832175230683
C            2.05813148290880       -0.73079597930462       -0.57532863388801
C            0.76080388171724       -1.36866351171398       -0.60391173081923
C           -0.11705139878693       -1.27724563794312        0.44747823847455
C           -1.47974271414319       -1.90487957754968        0.40513433968230
C           -2.46031868724713       -1.06473376263644       -0.42505253791485
C           -2.53355439131126        0.38831878725303        0.06435629113570
C           -1.45990488234409        1.23103022187994       -0.59628586299190
O           -1.37907640953152        1.31701964198276       -1.81072630583850
C           -0.51947163411364        1.93129522997415        0.30440604483694
C            0.67385686214972        2.34637147446524       -0.11241452160303
C            2.29303162918885       -0.01247236328871        0.64710165056544
O            1.46504950305941        0.00008215599519        1.65877665056715
C            0.28488589250722       -0.57330263131849        1.58326795747546
H            0.50906624440373       -1.94306388263928       -1.48869795813213
H           -1.40824568212690       -2.89896266069443       -0.03958542181120
H           -1.86448712224352       -2.00757055854489        1.42097891994461
H           -3.44562943189968       -1.52731686945550       -0.36550971064023
H           -2.14989477008262       -1.06259547399405       -1.47171399831740
H           -2.45842745257791        0.43328272015180        1.14777254281973
H           -3.49231599159663        0.81149337391759       -0.23684928472734
H           -0.82914905258455        2.06566566107721        1.33803196931939
H            0.97874268403689        2.20537699341183       -1.13623616618418
H            1.38176251032152        2.81379336490734        0.54286672884977
H            3.24109802185002        0.49253845600083        0.83384729430485
H           -0.29517850524602       -0.48131005836799        2.48580025719946
26
 energy: -41.809085438024 gnorm: 0.015366757207 xtb: 6.7.1 (edcfbbe)
O            2.89800351617594       -0.79395103846500       -1.48191932824246
C            2.06274290563090       -0.73547722930649       -0.57098390949466
C            0.76274310824332       -1.37127395019953       -0.60224223457558
C           -0.11540694996916       -1.28181325634718        0.45030338758285
C           -1.48035957657533       -1.90438547189197        0.40679392084096
C           -2.46077943257479       -1.06435939564821       -0.42424585611118
C           -2.53413511325168        0.39054122029185        0.05979905341121
C           -1.45621042567370        1.22982556717479       -0.59801889204762
O           -1.37833409064485        1.32729160600981       -1.80463638293692
C           -0.51371951819976        1.92319829521847        0.30914933698632
C            0.67626081702786        2.34458732624065       -0.11131286805217
C            2.29981013525632       -0.01423756930818        0.65071969180540
O            1.46496841908259       -0.00607579370398        1.65389895169850
C            0.28952338962900       -0.58138128629154        1.58530214420439
H            0.51254515280921       -1.94382716586227       -1.48472343410758
H           -1.41147902261201       -2.89777466350019       -0.03821325411687
H           -1.86557427032018       -2.00664434863310        1.42222459019594
H           -3.44637776194636       -1.52591157944310       -0.36000296846731
H           -2.15542630922630       -1.06350744032077       -1.47196080505937
H           -2.46475511278441        0.43691196124397        1.14426170854318
H           -3.49193549160093        0.81331091923720       -0.24765528837251
H           -0.82324080688820        2.05578706297132        1.33804910411730
H            0.97555837818559        2.21391307875538       -1.15036972414334
H            1.38127607001942        2.82964850205065        0.54023834361691
H            3.22654583163393        0.50102761379873        0.82893396109715
H           -0.29626684142623       -0.49589596407145        2.49579575162797
26
 energy: -41.809128315657 gnorm: 0.018730639118 xtb: 6.7.1 (edcfbbe)
O            2.88981810516404       -0.78379257236401       -1.49155953460432
C            2.06235094682679       -0.73720701259638       -0.57345473823724
C            0.76372017074865       -1.37461599394391       -0.60226911396824
C           -0.11197519107085       -1.29334990165700        0.45593129679206
C           -1.48139616045207       -1.90683856531581        0.41101436610642
C           -2.46028658237768       -1.06550319576796       -0.42133699325216