26
 energy: -41.439986029938 gnorm: 0.810041978991 xtb: 6.7.1 (edcfbbe)
O            2.93258600000000       -0.67839800000000       -1.43445900000000
C            2.04891400000000       -0.58406300000000       -0.59853600000000
C            0.86796500000000       -1.46479900000000       -0.55394100000000
C           -0.12595700000000       -1.21891400000000        0.32902600000000
C           -1.46057100000000       -1.90171500000000        0.31303400000000
C           -2.53781400000000       -1.05870000000000       -0.40356400000000
C           -2.64122400000000        0.40189300000000        0.08235600000000
C           -1.42459200000000        1.20392300000000       -0.35168300000000
O           -1.37926700000000        1.72989400000000       -1.44505200000000
C           -0.47054741920000        2.12371147360000        0.20132459300000
C            0.49883591920000        2.40656556710000       -0.26815326210000
C            2.62877508080000       -0.18787856710000        0.72291626210000
O            1.44674500000000        0.04141600000000        1.64796900000000
C            0.28492941920000       -0.92601647360000        1.74353540700000
H            0.80280500000000       -2.26385100000000       -1.29761700000000
H           -1.37880300000000       -2.87596400000000       -0.19128600000000
H           -1.78371700000000       -2.08829300000000        1.35106700000000
H           -3.51380100000000       -1.54838900000000       -0.26534200000000
H           -2.33242000000000       -1.05132900000000       -1.48609200000000
H           -2.76244000000000        0.43292200000000        1.17707100000000
H           -3.52333600000000        0.86964700000000       -0.37804200000000
H           -0.56571800000000        1.99289200000000        1.41338900000000
H            1.02057000000000        1.79094300000000       -1.08276100000000
H            1.44975500000000        2.63576600000000        0.42131100000000
H            3.06468300000000        0.85620100000000        0.65144100000000
H           -0.49037900000000       -0.25788700000000        2.24130100000000
26
 energy: -41.664186465431 gnorm: 0.269519676136 xtb: 6.7.1 (edcfbbe)
O            2.93057101140533       -0.66772095767561       -1.47166310211730
C            2.08802644055104       -0.65249206569063       -0.57399759691011
C            0.86748321015466       -1.46613763519573       -0.56436112677156
C           -0.11634223428725       -1.26086689964026        0.35720332991282
C           -1.46708375179942       -1.90753102106830        0.31457655511556
C           -2.53704950601622       -1.06083521574271       -0.40694400558005
C           -2.63982719930318        0.39419458385459        0.08509106124199
C           -1.47401426771331        1.23370126509103       -0.37107977005319
O           -1.42309904903549        1.70024396539986       -1.51573920574674
C           -0.50147246184401        2.05661435675298        0.29722933844391
C            0.61975384802693        2.37915269713427       -0.25253994104174
C            2.54432806541331       -0.13571105479725        0.73412808425630
O            1.46507276778373        0.01775026112063        1.67537324253298
C            0.29986503021289       -0.83066697931067        1.69181468735232
H            0.79125283090620       -2.24281001426619       -1.31868692461327
H           -1.38373026963360       -2.87461725512048       -0.19225666859162
H           -1.78648437513172       -2.08878765572928        1.34727237989418
H           -3.50989964131543       -1.54664987841285       -0.26546480986552
H           -2.33167722345207       -1.04987974207581       -1.48401704993374
H           -2.75832563524351        0.43168745512779        1.17464136831348
H           -3.51814899368169        0.86461372534234       -0.37594637676606
H           -0.58545316210185        2.02664411215839        1.43470756733792
H            1.02322520967523        1.82080619804410       -1.11879737975900
H            1.46241093193048        2.67137243810217        0.41313703854565
H            3.07467929146243        0.83933319131935        0.66858788110976
H           -0.47808386696352       -0.27183087472170        2.25694442369302
26
 energy: -41.759748340966 gnorm: 0.117480326170 xtb: 6.7.1 (edcfbbe)
O            2.92486809534122       -0.66453184440305       -1.48994009366110
C            2.11769282358801       -0.71575330299514       -0.55158534948964
C            0.87818701793772       -1.48087978708352       -0.56549855004278
C           -0.09103803405721       -1.30638673114878        0.38912658977799
C           -1.46591075734844       -1.91113258465655        0.32062240960171
C           -2.52716859302997       -1.05749813791879       -0.40764610886189
C           -2.62428300792067        0.39764455619641        0.08568032584017
C           -1.50200887064011        1.28049403000311       -0.40787309951748
O           -1.45659936377899        1.66671016627769       -1.58534789517142
C           -0.48213346548293        1.98375340971285        0.37068121441401
C            0.67109402349077        2.31981146249330       -0.20331312429010
C            2.42592857844124       -0.08673893496502        0.74203903638354
O            1.46908581946741        0.00106953891805        1.67327885704632
C            0.32892549976992       -0.71517062169173        1.62569614663902
H            0.76835428477617       -2.20814803027870       -1.35819913687761
H           -1.39237523889770       -2.87257204746315       -0.19176933157712
H           -1.79392147820653       -2.08973469763948        1.34545331920966
H           -3.49898562911613       -1.54126591778309       -0.26387619981617
H           -2.32604441923314       -1.04652684932937       -1.48108259695978
H           -2.74347511411506        0.43154778682132        1.17131433167678
H           -3.51363068695761        0.85238876433112       -0.36896376137859
H           -0.59089544963905        2.06636301306194        1.43365399777744
H            0.99140730914012        1.86027827121690       -1.14139221647475
H            1.45271148640718        2.70235571351875        0.40909261312757
H            3.08663208001217        0.80335386212712        0.70521048242317
H           -0.45043990994843       -0.28985408732219        2.28385114020104
26
 energy: -41.790327888072 gnorm: 0.065763698326 xtb: 6.7.1 (edcfbbe)
O            2.91747937305620       -0.67853254464229       -1.48763147215731
C            2.12377972900662       -0.74240708182367       -0.54618933674888
C            0.89275504104257       -1.50012694308087       -0.55546531645104
C           -0.06873116446488       -1.32849707146062        0.40878306585982
C           -1.45603856539258       -1.91114679396573        0.32909379354979
C           -2.50458286707714       -1.04970222223289       -0.40707475060327
C           -2.61271203619939        0.40399741052596        0.08431535666850
C           -1.51150688285374        1.29184267387057       -0.45181996942548
O           -1.49042425689133        1.62838332416828       -1.62944653125346
C           -0.46347706973907        1.90541773657680        0.40121753037463
C            0.70232926468419        2.25216366407966       -0.17041426493941
C            2.34267424075756       -0.05198453076662        0.71854395544145
O            1.46276881492880       -0.02093345222541        1.66204619686134
C            0.31918584148451       -0.63507026278977        1.57761199417583
H            0.73215347290762       -2.16027918880802       -1.40690646853744
H           -1.39836528680706       -2.87056526345675       -0.18788061789465
H           -1.80287957152401       -2.08774465714420        1.34749719607621
H           -3.47636627465754       -1.53109064742807       -0.26051024333527
H           -2.30624417192765       -1.04036791540723       -1.47946465232292
H           -2.70833591663000        0.43687782218979        1.17003132025395
H           -3.52193468622691        0.83394881520208       -0.35480920402176
H           -0.63974763229924        2.11915758153979        1.45959577768168
H            0.97339333661960        1.90379620973395       -1.17315935631801
H            1.46838887332482        2.75878015981930        0.41754487230187
H            3.10500848200431        0.75680454224821        0.75548027474383
H           -0.42259308712626       -0.30314436472223        2.31822385002008
26
 energy: -41.798650840712 gnorm: 0.049112567019 xtb: 6.7.1 (edcfbbe)
O            2.90668508027795       -0.68411746130863       -1.49861832597586
C            2.12642507248228       -0.75431679184173       -0.54393162551059
C            0.88419423419253       -1.49558590240337       -0.55544706090880
C           -0.06905853523654       -1.32732171209860        0.42014723082242
C           -1.45124913267516       -1.91309814814652        0.34030999138477
C           -2.47999125220555       -1.04130539425890       -0.40479902872035
C           -2.59492437966824        0.41190578211623        0.08485325559878
C           -1.51062343506498        1.30559667811358       -0.48686918801900
O           -1.50627105037813        1.58826197446819       -1.67349737652979
C           -0.46801773284174        1.88864473267750        0.40189303885130
C            0.70903668157143        2.23914425568928       -0.14791729350081
C            2.31702345457306       -0.02411642724697        0.68603929410301
O            1.47883844358372       -0.04345993902156        1.69001051307183
C            0.28718331256457       -0.58629201944759        1.55104061403153
H            0.68720775022825       -2.10789610846205       -1.43743620693830
H           -1.40127967298364       -2.87158841688440       -0.17856393130349
H           -1.81256926893939       -2.08624861917968        1.35477218827314
H           -3.45166539287023       -1.52189022527943       -0.26498043797251
H           -2.26951540803263       -1.03115613737278       -1.47489912213298
H           -2.65382824042061        0.44997843947293        1.17230584504969
H           -3.52944855942345        0.81054424884427       -0.33183771140906
H           -0.68259645060367        2.09763889722247        1.42663598507212
H            0.95945146307658        1.95449410459953       -1.15983046339163
H            1.46519621163415        2.72769113162891        0.41632416550841
H            3.12304679737453        0.71797067525827        0.79381148336018
H           -0.40727299021507       -0.32390061713892        2.35969716718615
26
 energy: -41.802977469107 gnorm: 0.052734626916 xtb: 6.7.1 (edcfbbe)
O            2.91442262185707       -0.71651907993451       -1.49060849479397
C            2.12445775734067       -0.75404079934335       -0.54802264519970
C            0.86238337231851       -1.47575347306638       -0.56625554364804
C           -0.07639205322833       -1.32637750968101        0.43322550323292
C           -1.45208762073411       -1.91747364115862        0.35337149183139
C           -2.46247915577016       -1.03589928354074       -0.40109355018998
C           -2.57878149034636        0.41523020640557        0.09309517114349
C           -1.49757824994098        1.29299478241312       -0.51061483128661
O           -1.49563816830673        1.51946939874608       -1.70921937331863
C           -0.46553411150752        1.86232740392535        0.39323489257773
C            0.72468142460437        2.20734865039184       -0.11954357824379
C            2.28819417938672       -0.00180900689904        0.66537229461662
O            1.41807580554142        0.03471804587238        1.61828965191104
C            0.27544126436068       -0.54927984930023        1.53687600933621
H            0.65629868921800       -2.07300092181562       -1.43882338896382
H           -1.40543220150917       -2.87349599185760       -0.16979216010991
H           -1.82553043986159       -2.09189031854457        1.36347744994147
H           -3.43746938225590       -1.51275502563576       -0.28287214887155
H           -2.22721701936851       -1.01550705581018       -1.46723437015471
H           -2.59460616085057        0.46098464639967        1.18243936303985
H           -3.53031535038001        0.79755440651371       -0.29636844011598
H           -0.75512239474095        2.11598997936987        1.40956626179208
H            0.95840864686629        1.99187994569893       -1.15198246600258
H            1.46732115983604        2.74574199512513        0.44348508304928
H            3.16744556779594        0.65373297328006        0.81319560140146
H           -0.39696969032479       -0.37459347755413        2.38601521702597
26
 energy: -41.804611776374 gnorm: 0.035725249764 xtb: 6.7.1 (edcfbbe)
O            2.91256153515856       -0.73996425652177       -1.48788242843307
C            2.11504783560018       -0.75199909989445       -0.54930936995367
C            0.84704129708221       -1.46760137924765       -0.56591023521841
C           -0.08461470919433       -1.32378707037532        0.43807686399900
C           -1.45659844346778       -1.92044393545818        0.35925081291782
C           -2.45845775848173       -1.03776730814839       -0.40413982588963
C           -2.56768751622298        0.41135372825211        0.09740789677188
C           -1.48474763575903        1.27345773744025       -0.52465979773832
O           -1.47949401747046        1.47892968504859       -1.72594465473223
C           -0.47169488123629        1.86164872281582        0.37527090510631
C            0.72116502463725        2.20859111336541       -0.10985100351877
C            2.29981005798859        0.00135827901058        0.65672890041838
O            1.43330475007647        0.03550227233350        1.63763064688611
C            0.25907676742458       -0.53997692564545        1.54595077087991
H            0.62855789413905       -2.05103696686870       -1.44597272820676
H           -1.40748151967379       -2.87875509819477       -0.15885347697175
H           -1.83423501860208       -2.09133636803111        1.36857767343021
H           -3.43776927711725       -1.51086502341939       -0.30876500504349
H           -2.19915671098460       -1.00741408960647       -1.46560108078299
H           -2.55473472268702        0.45875192683652        1.18753981307952
H           -3.52301670789548        0.80083640901991       -0.26677561884062
H           -0.78306388714319        2.10119460488378        1.39146931924653
H            0.95653706077042        2.02314855202622       -1.15386017630237
H            1.45877935507998        2.76678432390775        0.47195652665858
H            3.14530655001311        0.63415137467614        0.80679845540075
H           -0.37845832203437       -0.35518420820492        2.37007981683738
26
 energy: -41.806281391184 gnorm: 0.042862531976 xtb: 6.7.1 (edcfbbe)
O            2.91516110831206       -0.76389013828458       -1.48140254209304
C            2.09411781353236       -0.72879882356367       -0.56323738768510
C            0.82175055103048       -1.43531111741354       -0.57975714223968
C           -0.10013861418543       -1.29773862067743        0.42836210972006
C           -1.46151014315217       -1.91657766802886        0.36489739070140
C           -2.46172062149684       -1.04250119396984       -0.40841503163450
C           -2.55826100461280        0.40662589319874        0.09699232982476
C           -1.47864496105137        1.26236334511012       -0.54323669523779
O           -1.46879908745879        1.45023289016496       -1.74628924770085
C           -0.49118948363503        1.88699428391661        0.34738020738621
C            0.70483837366183        2.24121769417612       -0.11766783818904
C            2.29259301869813        0.00725692644848        0.65111211694121
O            1.43936931357801        0.05495587463968        1.65625908374198
C            0.26100954245810       -0.53931790146663        1.54173238039846
H            0.60120803190752       -2.02420101307034       -1.45394992613833
H           -1.40180593021092       -2.88026464630288       -0.14141251562196
H           -1.83450612389778       -2.08053560672247        1.37676880450844
H           -3.44327169970449       -1.51455181650557       -0.33283078597376
H           -2.18076875200529       -1.00782043617234       -1.46449223509563
H           -2.52063465281778        0.45303739579600        1.18645855043802
H           -3.51572963570335        0.80864166893082       -0.23994079519308
H           -0.78314843092142        2.05531126379263        1.35732572860087
H            0.95338215571995        2.05113552574581       -1.14223279294229
H            1.44206049541421        2.74076822358880        0.48612002392321
H            3.19322955394880        0.59850296844365        0.82654175148179
H           -0.36261381740791       -0.40595797177429        2.43412745807904
26
 energy: -41.807354835158 gnorm: 0.025516470158 xtb: 6.7.1 (edcfbbe)
O            2.92026787750774       -0.77586796133833       -1.47688002229527
C            2.09434359075599       -0.73961780018763       -0.55859889459929
C            0.81571577068639       -1.43182930987902       -0.57836035941562
C           -0.09812500316498       -1.30151684874888        0.43924762233672
C           -1.46387332354674       -1.91569019988202        0.37469163074270
C           -2.45912733233145       -1.04510153687755       -0.41063599931441
C           -2.55181713071812        0.40452461184738        0.09259257300050
C           -1.47767727781736        1.26455148271246       -0.55284769492812
O           -1.45580958161509        1.43598100438462       -1.75842358572904
C           -0.49670736845605        1.89859614737987        0.34310009311649
C            0.70167444114549        2.26365879108606       -0.11281711748230
C            2.29170788084783        0.01821148640987        0.65296540027748
O            1.42513660199409        0.05154598666297        1.63009997074806
C            0.26383020482898       -0.54687312919571        1.55460877977781
H            0.58495031334539       -2.01459437328655       -1.46076881566059
H           -1.40226245161748       -2.88317972296270       -0.12455946084026
H           -1.84075671604261       -2.07216543403532        1.38651806953937
H           -3.44115828208063       -1.51584685174892       -0.34126552453726
H           -2.17313013947059       -1.01485856627446       -1.46434391046701
H           -2.50525083795095        0.44638480605304        1.18063859076813
H           -3.51223714553560        0.81108630998850       -0.23226216719004
H           -0.79336060580161        2.05567146004144        1.35781888083478
H            0.95579470347098        2.08582684515740       -1.14190238059958
H            1.43719481233495        2.71465902944537        0.49802729060040
H            3.19158005850692        0.59590265756905        0.81829340539321
H           -0.35492605927543       -0.40988188432097        2.42427662592352
26
 energy: -41.808227120500 gnorm: 0.019597022687 xtb: 6.7.1 (edcfbbe)
O            2.91381121037689       -0.77961428115090       -1.48047294214748
C            2.08309829605710       -0.73594072264797       -0.56352861138422
C            0.79783960288376       -1.41115814168385       -0.58842904035458
C           -0.10439234324396       -1.29541488834768        0.44392567319232
C           -1.46986875142108       -1.91419155453918        0.38448840825720
C           -2.46028261536732       -1.05061313389233       -0.41447775450727
C           -2.54698067041819        0.39968611953122        0.08462604164724
C           -1.47439967459732        1.25551526742616       -0.56752409011855
O           -1.43264111489700        1.39761254045266       -1.77914030085085
C           -0.49884757345742        1.90057435910465        0.32961583531563
C            0.70070727435815        2.27388752767790       -0.11211321986614
C            2.29170294404892        0.00929683546435        0.64650354118611
O            1.43783794580727        0.03129118563374        1.63372135923320
C            0.27021588334533       -0.55365295270074        1.56152480879660
H            0.56736016567005       -1.99855472610603       -1.46336589399157
H           -1.40502862780075       -2.88753756203963       -0.10372438393434
H           -1.84965065831173       -2.05844806165572        1.39739670457110
H           -3.44258555252648       -1.51914885439994       -0.34858140182517
H           -2.16869036723830       -1.02835101306536       -1.46600723219015
H           -2.48888152758412        0.44109900926326        1.17135473122277
H           -3.50882575737832        0.81167063366175       -0.22996069248543
H           -0.81804394289482        2.07806576739995        1.35776779388613
H            0.97137207639766        2.11217081726851       -1.14182645831487
H            1.42768227375779        2.76504948404232        0.51686555121701
H            3.20054841219384        0.56830909355925        0.82469237137210
H           -0.33707990775991       -0.43202574825642        2.44588220207374
26
 energy: -41.808578424520 gnorm: 0.016195260695 xtb: 6.7.1 (edcfbbe)
O            2.91205276555624       -0.79688474870868       -1.47538033978869
C            2.07089349659957       -0.73441994356915       -0.56851087572054
C            0.78212162861027       -1.39571508081440       -0.59459838115577
C           -0.11013144784091       -1.29235640373241        0.44739512128323
C           -1.47590346074414       -1.91325205098596        0.39315779732140
C           -2.45967722318305       -1.05728590453408       -0.42196536066555
C           -2.53938345941779        0.39320367813884        0.07493412163539
C           -1.46968707845750        1.24651335334283       -0.58232950319000
O           -1.42268620979843        1.38288901652577       -1.78592425221271
C           -0.50506532693804        1.90636356405569        0.32370389579853
C            0.69019942721344        2.30156044310243       -0.10914337339636
C            2.28521451061327        0.00047374105537        0.64652503188874
O            1.44504512509460        0.03092171358848        1.64027318399276
C            0.27644495808224       -0.55037752880488        1.57023134859720
H            0.54834833954879       -1.98367176868507       -1.46737139571363
H           -1.40848639726572       -2.89533816890779       -0.07775207346538
H           -1.85998272497751       -2.03979015033282        1.40728458241756
H           -3.44372242039263       -1.52165452370667       -0.35938626375587
H           -2.15932602510858       -1.04333757596979       -1.47108220638632
H           -2.46660887138451        0.43275586638692        1.16087852474367
H           -3.50308284666318        0.81235792424585       -0.22572136590141
H           -0.80712916400660        2.04035229622244        1.34939176516838
H            0.97217537061061        2.16336635520326       -1.15116284530138
H            1.41449031463517        2.80020325022933        0.53043359259841
H            3.21146169417704        0.53489253784279        0.82835499375097
H           -0.32159797456262       -0.44219289118832        2.45697727745795
26
 energy: -41.808769330254 gnorm: 0.019621852209 xtb: 6.7.1 (edcfbbe)
O            2.91074923828058       -0.81137280593435       -1.47316507720999
C            2.06386382175932       -0.73756115127610       -0.57208126248161
C            0.76832139641772       -1.38110189849803       -0.60147667060459
C           -0.11404364864297       -1.28535670781853        0.44710390395841
C           -1.47933917657215       -1.90887649835693        0.40066954098716
C           -2.45927679546097       -1.06135458166888       -0.42533894054859
C           -2.53366046215838        0.39011217674443        0.06842759669355
C           -1.46405417936240        1.23813398404877       -0.59334627414837
O           -1.39673106199273        1.34050605260520       -1.80437194132319
C           -0.51631739100854        1.92688300776539        0.30817612661421
C            0.67945341166612        2.33222475104080       -0.11339935386840
C            2.28669641851798       -0.00235770467101        0.64706470096867
O            1.45575476562133        0.02038872325746        1.64920368717002
C            0.28682002117076       -0.56110744374102        1.57689113917382
H            0.52214313825477       -1.96097325876142       -1.48249589504875
H           -1.41029124845961       -2.89945989526996       -0.05278315562843
H           -1.86520961553325       -2.01867701673964        1.41599891264905
H           -3.44473004885025       -1.52318911823443       -0.36616873056303
H           -2.15081626503442       -1.05529233157502       -1.47243645480006
H           -2.45487406007564        0.43248672320563        1.15260261303284
H           -3.49540150127082        0.81307423646999       -0.22815975573908
H           -0.81575702267805        2.04923938803647        1.33751864118891
H            0.98518226741758        2.17852275479531       -1.12302785750428
H            1.39217762996165        2.82226361338598        0.54077023812775
H            3.20704507555237        0.51571471998123        0.82045914765723
H           -0.30172770752001       -0.47329271879141        2.48257812124741
26
 energy: -41.808950050249 gnorm: 0.020016966406 xtb: 6.7.1 (edcfbbe)
O            2.90198977049648       -0.80383860121201       -1.47832419267408
C            2.05812634366226       -0.73080304251196       -0.57532988971663
C            0.76079602537740       -1.36866495608560       -0.60391110003379
C           -0.11705663623669       -1.27724457232071        0.44748082322465
C           -1.47975059073928       -1.90487299436042        0.40513886524953
C           -2.46032168365919       -1.06472612869725       -0.42505246605347
C           -2.53355178419696        0.38832792669048        0.06435245518924
C           -1.45989496914574        1.23103223344338       -0.59628686373110
O           -1.37905742357189        1.31701452602493       -1.81072760892792
C           -0.51946563420159        1.93129885265158        0.30440791217187
C            0.67386449024230        2.34637499591108       -0.11240824327420
C            2.29303140327404       -0.01248103470921        0.64710037608088
O            1.46505142914788        0.00007636100279        1.65877681279049
C            0.28488557991486       -0.57330397083654        1.58327030950814
H            0.50905424744806       -1.94306359529083       -1.48869732686129
H           -1.40825754650215       -2.89895852477819       -0.03957612255492
H           -1.86449633540609       -2.00755748447835        1.42098356571384
H           -3.44563452035263       -1.52730482965602       -0.36551010106331
H           -2.14989569120295       -1.06259217207705       -1.47171331354624
H           -2.45842923048052        0.43329406270467        1.14776895031972
H           -3.49230977133143        0.81150705299177       -0.23685825701010
H           -0.82914673739017        2.06566983586359        1.33803254125983
H            0.97875451170563        2.20537922251137       -1.13622750588542
H            1.38176747412438        2.81379762995236        0.54287590154956
H            3.24110090922993        0.49252527867923        0.83384447832212
H           -0.29517663020595       -0.48130907141313        2.48580299995336
26
 energy: -41.809085495349 gnorm: 0.015366183302 xtb: 6.7.1 (edcfbbe)
O            2.89799688793814       -0.79396045965405       -1.48192171531818
C            2.06273802833248       -0.73548379907431       -0.57098502854106
C            0.76273633023461       -1.37127639828803       -0.60224089044444
C           -0.11541192125934       -1.28181269969176        0.45030602492289
C           -1.48036723092290       -1.90437911848891        0.40679790616671
C           -2.46078249113754       -1.06435157332713       -0.42424574479649
C           -2.53413277954789        0.39055046463796        0.05979552194292
C           -1.45620091533902        1.22982817997142       -0.59801917428256
O           -1.37831778655361        1.32729076897987       -1.80463566981756
C           -0.51371275908919        1.92320030975335        0.30915278838367
C            0.67626883877358        2.34458925469264       -0.11130607447415
C            2.29980972367838       -0.01424621914234        0.65071844658290
O            1.46496935285079       -0.00608083133347        1.65389842953577
C            0.28952187211173       -0.58138160884261        1.58530424253306
H            0.51253530547937       -1.94382862131274       -1.48472127636675
H           -1.41149078889824       -2.89777030109766       -0.03820542706659
H           -1.86558312564205       -2.00663244473216        1.42222865802294
H           -3.44638283640586       -1.52589952717326       -0.36000305031075
H           -2.15542778122732       -1.06350334722687       -1.47196022689193
H           -2.46475743901076        0.43692300601405        1.14425850398041
H           -3.49192972772400        0.81332455674975       -0.24766392329031
H           -0.82323645411486        2.05578790604025        1.33805053250412
H            0.97556812701023        2.21391650686799       -1.15036483897989
H            1.38128281837918        2.82965003301196        0.54024648275704
H            3.22655055160608        0.50101514914177        0.82893241708370
H           -0.29626679952195       -0.49589218647574        2.49579608616530
26
 energy: -41.809128395506 gnorm: 0.018729471677 xtb: 6.7.1 (edcfbbe)
O            2.88981269823796       -0.78380293493231       -1.49156127184599
C            2.06234669895430       -0.73721410380472       -0.57345567828278
C            0.76371410824782       -1.37461933202991       -0.60226791778749
C           -0.11198002299306       -1.29334901901379        0.45593291499153
C           -1.48140352784791       -1.90683218475218        0.41101745131729
C           -2.46028974843641       -1.06549473973644       -0.42133660195629