
                                 *****************
                                 * O   R   C   A *
                                 *****************

                                            #,                                       
                                            ###                                      
                                            ####                                     
                                            #####                                    
                                            ######                                   
                                           ########,                                 
                                     ,,################,,,,,                         
                               ,,#################################,,                 
                          ,,##########################################,,             
                       ,#########################################, ''#####,          
                    ,#############################################,,   '####,        
                  ,##################################################,,,,####,       
                ,###########''''           ''''###############################       
              ,#####''   ,,,,##########,,,,          '''####'''          '####       
            ,##' ,,,,###########################,,,                        '##       
           ' ,,###''''                  '''############,,,                           
         ,,##''                                '''############,,,,        ,,,,,,###''
      ,#''                                            '''#######################'''  
     '                                                          ''''####''''         
             ,#######,   #######,   ,#######,      ##                                
            ,#'     '#,  ##    ##  ,#'     '#,    #''#        ######   ,####,        
            ##       ##  ##   ,#'  ##            #'  '#       #        #'  '#        
            ##       ##  #######   ##           ,######,      #####,   #    #        
            '#,     ,#'  ##    ##  '#,     ,#' ,#      #,         ##   #,  ,#        
             '#######'   ##     ##  '#######'  #'      '#     #####' # '####'        



                  #######################################################
                  #                        -***-                        #
                  #          Department of theory and spectroscopy      #
                  #    Directorship and core code : Frank Neese         #
                  #        Max Planck Institute fuer Kohlenforschung    #
                  #                Kaiser Wilhelm Platz 1               #
                  #                 D-45470 Muelheim/Ruhr               #
                  #                      Germany                        #
                  #                                                     #
                  #                  All rights reserved                #
                  #                        -***-                        #
                  #######################################################


                         Program Version 5.0.4 -  RELEASE  -


 With contributions from (in alphabetic order):
   Daniel Aravena         : Magnetic Suceptibility
   Michael Atanasov       : Ab Initio Ligand Field Theory (pilot matlab implementation)
   Alexander A. Auer      : GIAO ZORA, VPT2 properties, NMR spectrum
   Ute Becker             : Parallelization
   Giovanni Bistoni       : ED, misc. LED, open-shell LED, HFLD
   Martin Brehm           : Molecular dynamics
   Dmytro Bykov           : SCF Hessian
   Vijay G. Chilkuri      : MRCI spin determinant printing, contributions to CSF-ICE
   Dipayan Datta          : RHF DLPNO-CCSD density
   Achintya Kumar Dutta   : EOM-CC, STEOM-CC
   Dmitry Ganyushin       : Spin-Orbit,Spin-Spin,Magnetic field MRCI
   Miquel Garcia          : C-PCM and meta-GGA Hessian, CC/C-PCM, Gaussian charge scheme
   Yang Guo               : DLPNO-NEVPT2, F12-NEVPT2, CIM, IAO-localization
   Andreas Hansen         : Spin unrestricted coupled pair/coupled cluster methods
   Benjamin Helmich-Paris : MC-RPA, TRAH-SCF, COSX integrals
   Lee Huntington         : MR-EOM, pCC
   Robert Izsak           : Overlap fitted RIJCOSX, COSX-SCS-MP3, EOM
   Marcus Kettner         : VPT2
   Christian Kollmar      : KDIIS, OOCD, Brueckner-CCSD(T), CCSD density, CASPT2, CASPT2-K
   Simone Kossmann        : Meta GGA functionals, TD-DFT gradient, OOMP2, MP2 Hessian
   Martin Krupicka        : Initial AUTO-CI
   Lucas Lang             : DCDCAS
   Marvin Lechner         : AUTO-CI (C++ implementation), FIC-MRCC
   Dagmar Lenk            : GEPOL surface, SMD
   Dimitrios Liakos       : Extrapolation schemes; Compound Job, initial MDCI parallelization
   Dimitrios Manganas     : Further ROCIS development; embedding schemes
   Dimitrios Pantazis     : SARC Basis sets
   Anastasios Papadopoulos: AUTO-CI, single reference methods and gradients
   Taras Petrenko         : DFT Hessian,TD-DFT gradient, ASA, ECA, R-Raman, ABS, FL, XAS/XES, NRVS
   Peter Pinski           : DLPNO-MP2, DLPNO-MP2 Gradient
   Christoph Reimann      : Effective Core Potentials
   Marius Retegan         : Local ZFS, SOC
   Christoph Riplinger    : Optimizer, TS searches, QM/MM, DLPNO-CCSD(T), (RO)-DLPNO pert. Triples
   Tobias Risthaus        : Range-separated hybrids, TD-DFT gradient, RPA, STAB
   Michael Roemelt        : Original ROCIS implementation
   Masaaki Saitow         : Open-shell DLPNO-CCSD energy and density
   Barbara Sandhoefer     : DKH picture change effects
   Avijit Sen             : IP-ROCIS
   Kantharuban Sivalingam : CASSCF convergence, NEVPT2, FIC-MRCI
   Bernardo de Souza      : ESD, SOC TD-DFT
   Georgi Stoychev        : AutoAux, RI-MP2 NMR, DLPNO-MP2 response
   Willem Van den Heuvel  : Paramagnetic NMR
   Boris Wezisla          : Elementary symmetry handling
   Frank Wennmohs         : Technical directorship


 We gratefully acknowledge several colleagues who have allowed us to
 interface, adapt or use parts of their codes:
   Stefan Grimme, W. Hujo, H. Kruse, P. Pracht,  : VdW corrections, initial TS optimization,
                  C. Bannwarth, S. Ehlert          DFT functionals, gCP, sTDA/sTD-DF
   Ed Valeev, F. Pavosevic, A. Kumar             : LibInt (2-el integral package), F12 methods
   Garnet Chan, S. Sharma, J. Yang, R. Olivares  : DMRG
   Ulf Ekstrom                                   : XCFun DFT Library
   Mihaly Kallay                                 : mrcc  (arbitrary order and MRCC methods)
   Jiri Pittner, Ondrej Demel                    : Mk-CCSD
   Frank Weinhold                                : gennbo (NPA and NBO analysis)
   Christopher J. Cramer and Donald G. Truhlar   : smd solvation model
   Lars Goerigk                                  : TD-DFT with DH, B97 family of functionals
   V. Asgeirsson, H. Jonsson                     : NEB implementation
   FAccTs GmbH                                   : IRC, NEB, NEB-TS, DLPNO-Multilevel, CI-OPT
                                                   MM, QMMM, 2- and 3-layer-ONIOM, Crystal-QMMM,
                                                   LR-CPCM, SF, NACMEs, symmetry and pop. for TD-DFT,
                                                   nearIR, NL-DFT gradient (VV10), updates on ESD,
                                                   ML-optimized integration grids
   S Lehtola, MJT Oliveira, MAL Marques          : LibXC Library
   Liviu Ungur et al                             : ANISO software


 Your calculation uses the libint2 library for the computation of 2-el integrals
 For citations please refer to: http://libint.valeyev.net

 Your ORCA version has been built with support for libXC version: 5.1.0
 For citations please refer to: https://tddft.org/programs/libxc/

 This ORCA versions uses:
   CBLAS   interface :  Fast vector & matrix operations
   LAPACKE interface :  Fast linear algebra routines
   SCALAPACK package :  Parallel linear algebra routines
   Shared memory     :  Shared parallel matrices
   BLAS/LAPACK       :  OpenBLAS 0.3.15  USE64BITINT DYNAMIC_ARCH NO_AFFINITY Zen SINGLE_THREADED
        Core in use  :  Zen
   Copyright (c) 2011-2014, The OpenBLAS Project


Your calculation utilizes the DFT-NL dispersion correction.
Cite in your paper:
Vydrov, O. A.; Van Voorhis, T. J. Chem. Phys. 2010, 133, 244103
Hujo, W.; Grimme, S. J. Chem. Theory Comput. 2011, 7, 3866 
   

Your calculation utilizes the SMD solvation module
Please cite in your paper:
A.V. Marenich, C.J. Cramer, D.G. Truhlar J. Phys. Chem. B, 113, (2009), 6378 

================================================================================

----- Orbital basis set information -----
Your calculation utilizes the basis: def2-TZVPP
   F. Weigend and R. Ahlrichs, Phys. Chem. Chem. Phys. 7, 3297 (2005).

----- AuxJ basis set information -----
Your calculation utilizes the auxiliary basis: def2/J
   F. Weigend, Phys. Chem. Chem. Phys. 8, 1057 (2006).

================================================================================
                                        WARNINGS
                       Please study these warnings very carefully!
================================================================================

Using LibXC functional ID 531 : wB97M-V exchange-correlation functional
[ 1]  N. Mardirossian and M. Head-Gordon, J. Chem. Phys. 144, 214110 (2016)
Using LibXC functional ID 531 : wB97M-V exchange-correlation functional
[ 1]  N. Mardirossian and M. Head-Gordon, J. Chem. Phys. 144, 214110 (2016)

WARNING: B97M-V or wB97M-V functional requested.
  ===> : libXC variant has now been activated.
         Any manually given DFX/HFX/RangeSep scaling parameters are IGNORED!

Your calculation utilizes LibXC
 by S Lehtola, C Steigemann, MJT Oliveira & MAL Marques
Please cite in your paper:
 S Lehtola, C Steigemann, MJT Oliveira & MAL Marques, SoftwareX, 7, (2018), 1.
   


INFO   : the flag for use of the SHARK integral package has been found!

================================================================================
                                       INPUT FILE
================================================================================
NAME = orca_input.inp
|  1> ! WB97M-V def2-TZVPP def2/J RIJCOSX tightSCF noautostart miniprint nopop
|  2> %maxcore 4000
|  3> %pal nprocs 16 end
|  4> 
|  5>  %cpcm
|  6>     smd true
|  7>     SMDsolvent "Acetone"
|  8>  end
|  9>  
| 10>  * xyz 0 1
| 11> O     2.9325860000   -0.6783980000   -1.4344590000
| 12> C     2.0489140000   -0.5840630000   -0.5985360000
| 13> C     0.8679650000   -1.4647990000   -0.5539410000
| 14> C    -0.1259570000   -1.2189140000    0.3290260000
| 15> C    -1.4605710000   -1.9017150000    0.3130340000
| 16> C    -2.5378140000   -1.0587000000   -0.4035640000
| 17> C    -2.6412240000    0.4018930000    0.0823560000
| 18> C    -1.4245920000    1.2039230000   -0.3516830000
| 19> O    -1.3792670000    1.7298940000   -1.4450520000
| 20> C    -0.3302445778    1.5573334263    0.4877351727
| 21> C     0.8943963691    1.9247410473   -0.0840973445
| 22> C     2.2332146309    0.2939469527    0.5388603445
| 23> O     1.4467450000    0.0414160000    1.6479690000
| 24> C     0.1446265778   -0.3596384263    1.4571248273
| 25> H     0.8028050000   -2.2638510000   -1.2976170000
| 26> H    -1.3788030000   -2.8759640000   -0.1912860000
| 27> H    -1.7837170000   -2.0882920000    1.3510670000
| 28> H    -3.5138010000   -1.5483890000   -0.2653420000
| 29> H    -2.3324200000   -1.0513290000   -1.4860920000
| 30> H    -2.7624410000    0.4329220000    1.1770710000
| 31> H    -3.5233360000    0.8696470000   -0.3780420000
| 32> H    -0.5657180000    1.9928920000    1.4133890000
| 33> H     1.0205700000    1.7909430000   -1.0827610000
| 34> H     1.4497550000    2.6357660000    0.4213110000
| 35> H     3.0646820000    0.8562010000    0.6514410000
| 36> H    -0.4903780000   -0.2578870000    2.2413010000
| 37> 
| 38>  *
| 39> 
| 40>                          ****END OF INPUT****
================================================================================

                       ****************************
                       * Single Point Calculation *
                       ****************************

---------------------------------
CARTESIAN COORDINATES (ANGSTROEM)
---------------------------------
  O      2.932586   -0.678398   -1.434459
  C      2.048914   -0.584063   -0.598536
  C      0.867965   -1.464799   -0.553941
  C     -0.125957   -1.218914    0.329026
  C     -1.460571   -1.901715    0.313034
  C     -2.537814   -1.058700   -0.403564
  C     -2.641224    0.401893    0.082356
  C     -1.424592    1.203923   -0.351683
  O     -1.379267    1.729894   -1.445052
  C     -0.330245    1.557333    0.487735
  C      0.894396    1.924741   -0.084097
  C      2.233215    0.293947    0.538860
  O      1.446745    0.041416    1.647969
  C      0.144627   -0.359638    1.457125
  H      0.802805   -2.263851   -1.297617
  H     -1.378803   -2.875964   -0.191286
  H     -1.783717   -2.088292    1.351067
  H     -3.513801   -1.548389   -0.265342
  H     -2.332420   -1.051329   -1.486092
  H     -2.762441    0.432922    1.177071
  H     -3.523336    0.869647   -0.378042
  H     -0.565718    1.992892    1.413389
  H      1.020570    1.790943   -1.082761
  H      1.449755    2.635766    0.421311
  H      3.064682    0.856201    0.651441
  H     -0.490378   -0.257887    2.241301

----------------------------
CARTESIAN COORDINATES (A.U.)
----------------------------
  NO LB      ZA    FRAG     MASS         X           Y           Z
   0 O     8.0000    0    15.999    5.541784   -1.281986   -2.710735
   1 C     6.0000    0    12.011    3.871886   -1.103719   -1.131069
   2 C     6.0000    0    12.011    1.640216   -2.768069   -1.046797
   3 C     6.0000    0    12.011   -0.238024   -2.303414    0.621769
   4 C     6.0000    0    12.011   -2.760079   -3.593721    0.591549
   5 C     6.0000    0    12.011   -4.795773   -2.000653   -0.762625
   6 C     6.0000    0    12.011   -4.991190    0.759468    0.155630
   7 C     6.0000    0    12.011   -2.692089    2.275085   -0.664585
   8 O     8.0000    0    15.999   -2.606437    3.269026   -2.730753
   9 C     6.0000    0    12.011   -0.624072    2.942934    0.921686
  10 C     6.0000    0    12.011    1.690164    3.637233   -0.158921
  11 C     6.0000    0    12.011    4.220164    0.555479    1.018298
  12 O     8.0000    0    15.999    2.733952    0.078265    3.114210
  13 C     6.0000    0    12.011    0.273305   -0.679618    2.753567
  14 H     1.0000    0     1.008    1.517082   -4.278058   -2.452141
  15 H     1.0000    0     1.008   -2.605560   -5.434784   -0.361478
  16 H     1.0000    0     1.008   -3.370737   -3.946300    2.553147
  17 H     1.0000    0     1.008   -6.640122   -2.926031   -0.501424
  18 H     1.0000    0     1.008   -4.407635   -1.986724   -2.808307
  19 H     1.0000    0     1.008   -5.220257    0.818104    2.224342
  20 H     1.0000    0     1.008   -6.658140    1.643395   -0.714396
  21 H     1.0000    0     1.008   -1.069052    3.766020    2.670918
  22 H     1.0000    0     1.008    1.928598    3.384392   -2.046122
  23 H     1.0000    0     1.008    2.739640    4.980876    0.796162
  24 H     1.0000    0     1.008    5.791410    1.617985    1.231045
  25 H     1.0000    0     1.008   -0.926680   -0.487336    4.235445



           ************************************************************
           *        Program running with 16 parallel MPI-processes    *
           *              working on a common directory               *
           ************************************************************
------------------------------------------------------------------------------
                   ___                                                        
                  /   \      - P O W E R E D   B Y -                         
                 /     \                                                     
                 |  |  |   _    _      __       _____    __    __             
                 |  |  |  | |  | |    /  \     |  _  \  |  |  /  |          
                  \  \/   | |  | |   /    \    | | | |  |  | /  /          
                 / \  \   | |__| |  /  /\  \   | |_| |  |  |/  /          
                |  |  |   |  __  | /  /__\  \  |    /   |      \           
                |  |  |   | |  | | |   __   |  |    \   |  |\   \          
                \     /   | |  | | |  |  |  |  | |\  \  |  | \   \       
                 \___/    |_|  |_| |__|  |__|  |_| \__\ |__|  \__/        
                                                                              
                      - O R C A' S   B I G   F R I E N D -                    
                                      &                                       
                       - I N T E G R A L  F E E D E R -                       
                                                                              
 v1 FN, 2020, v2 2021                                                         
------------------------------------------------------------------------------


Reading SHARK input file orca_input.SHARKINP.tmp ... ok
----------------------
SHARK INTEGRAL PACKAGE
----------------------

Number of atoms                             ...     26
Number of basis functions                   ...    602
Number of shells                            ...    226
Maximum angular momentum                    ...      3
Integral batch strategy                     ... SHARK/LIBINT Hybrid
RI-J (if used) integral strategy            ... SPLIT-RIJ (Revised 2003 algorithm where possible)
Printlevel                                  ...      1
Contraction scheme used                     ... SEGMENTED contraction
Coulomb Range Separation                    ... NOT USED
Exchange Range Separation                   ... Long Range
   Mu parameter                             ...  0.300000
   Scaling (regular/separated)              ...  0.150000  0.850000
Finite Nucleus Model                        ... NOT USED
Auxiliary Coulomb fitting basis             ... AVAILABLE
   # of basis functions in Aux-J            ...    818
   # of shells in Aux-J                     ...    270
   Maximum angular momentum in Aux-J        ...      4
Auxiliary J/K fitting basis                 ... NOT available
Auxiliary Correlation fitting basis         ... NOT available
Auxiliary 'external' fitting basis          ... NOT available
Integral threshold                          ...     2.500000e-11
Primitive cut-off                           ...     2.500000e-12
Primitive pair pre-selection threshold      ...     2.500000e-12

Calculating pre-screening integrals         ... done (  0.0 sec) Dimension = 226
Organizing shell pair data                  ... done (  0.2 sec)
Shell pair information
Total number of shell pairs                 ...     25651
Shell pairs after pre-screening             ...     22006
Total number of primitive shell pairs       ...     71220
Primitive shell pairs kept                  ...     44492
          la=0 lb=0:   4728 shell pairs
          la=1 lb=0:   6112 shell pairs
          la=1 lb=1:   2009 shell pairs
          la=2 lb=0:   3497 shell pairs
          la=2 lb=1:   2308 shell pairs
          la=2 lb=2:    677 shell pairs
          la=3 lb=0:   1261 shell pairs
          la=3 lb=1:    831 shell pairs
          la=3 lb=2:    485 shell pairs
          la=3 lb=3:     98 shell pairs

Calculating one electron integrals          ... done (  0.0 sec)
Calculating RI/J V-Matrix + Cholesky decomp.... done (  0.0 sec)
Calculating Nuclear repulsion               ... done (  0.0 sec) ENN=    930.092248730650 Eh

SHARK setup successfully completed in   0.5 seconds

Maximum memory used throughout the entire GTOINT-calculation: 34.7 MB


           ************************************************************
           *        Program running with 16 parallel MPI-processes    *
           *              working on a common directory               *
           ************************************************************

Diagonalization of the overlap matrix:
Smallest eigenvalue                        ... 2.975e-05
Time for diagonalization                   ...    0.035 sec
Threshold for overlap eigenvalues          ... 1.000e-08
Number of eigenvalues below threshold      ... 0
Time for construction of square roots      ...    0.045 sec
Total time needed                          ...    0.082 sec

Time for model grid setup =    0.091 sec

Loading Hartree-Fock densities                     ... done
Calculating cut-offs                               ... done
Initializing the effective Hamiltonian             ... done
Setting up the integral package (SHARK)            ... done
Starting the Coulomb interaction                   ... done (   0.1 sec)
Reading the grid                                   ... done
Mapping shells                                     ... done
Starting the XC term evaluation                    ... done (   0.1 sec)
  promolecular density results
     # of electrons  =    101.998409167
     EX              =    -84.275696730
     EC              =     -3.435086118
     EX+EC           =    -87.710782849
Transforming the Hamiltonian                       ... done (   0.0 sec)
Diagonalizing the Hamiltonian                      ... done (   0.0 sec)
Back transforming the eigenvectors                 ... done (   0.0 sec)
Now organizing SCF variables                       ... done
-------------------
DFT GRID GENERATION
-------------------

General Integration Accuracy     IntAcc      ... 4.388
Radial Grid Type                 RadialGrid  ... OptM3 with GC (2021)
Angular Grid (max. ang.)         AngularGrid ... 4 (Lebedev-302)
Angular grid pruning method      GridPruning ... 4 (adaptive)
Weight generation scheme         WeightScheme... Becke
Basis function cutoff            BFCut       ... 1.0000e-11
Integration weight cutoff        WCut        ... 1.0000e-14
Angular grids for H and He will be reduced by one unit
Partially contracted basis set               ... off
Rotationally invariant grid construction     ... off

Total number of grid points                  ...   121731
Total number of batches                      ...     1915
Average number of points per batch           ...       63
Average number of grid points per atom       ...     4682
Time for grid setup =    0.456 sec

--------------------
COSX GRID GENERATION
--------------------

GRIDX 1
-------
General Integration Accuracy     IntAcc      ... 3.816
Radial Grid Type                 RadialGrid  ... OptM3 with GC (2021)
Angular Grid (max. ang.)         AngularGrid ... 1 (Lebedev-50)
Angular grid pruning method      GridPruning ... 4 (adaptive)
Weight generation scheme         WeightScheme... Becke
Basis function cutoff            BFCut       ... 1.0000e-11
Integration weight cutoff        WCut        ... 1.0000e-14
Angular grids for H and He will be reduced by one unit
Partially contracted basis set               ... on
Rotationally invariant grid construction     ... off

Total number of grid points                  ...    15466
Total number of batches                      ...      258
Average number of points per batch           ...       59
Average number of grid points per atom       ...      595
UseSFitting                                  ... on

GRIDX 2
-------
General Integration Accuracy     IntAcc      ... 4.020
Radial Grid Type                 RadialGrid  ... OptM3 with GC (2021)
Angular Grid (max. ang.)         AngularGrid ... 2 (Lebedev-110)
Angular grid pruning method      GridPruning ... 4 (adaptive)
Weight generation scheme         WeightScheme... Becke
Basis function cutoff            BFCut       ... 1.0000e-11
Integration weight cutoff        WCut        ... 1.0000e-14
Angular grids for H and He will be reduced by one unit
Partially contracted basis set               ... on
Rotationally invariant grid construction     ... off

Total number of grid points                  ...    33474
Total number of batches                      ...      536
Average number of points per batch           ...       62
Average number of grid points per atom       ...     1287
UseSFitting                                  ... on

GRIDX 3
-------
General Integration Accuracy     IntAcc      ... 4.338
Radial Grid Type                 RadialGrid  ... OptM3 with GC (2021)
Angular Grid (max. ang.)         AngularGrid ... 3 (Lebedev-194)
Angular grid pruning method      GridPruning ... 4 (adaptive)
Weight generation scheme         WeightScheme... Becke
Basis function cutoff            BFCut       ... 1.0000e-11
Integration weight cutoff        WCut        ... 1.0000e-14
Angular grids for H and He will be reduced by one unit
Partially contracted basis set               ... on
Rotationally invariant grid construction     ... off

Total number of grid points                  ...    73326
Total number of batches                      ...     1158
Average number of points per batch           ...       63
Average number of grid points per atom       ...     2820
UseSFitting                                  ... on

Time for X-Grid setup             =    0.620 sec


--------------------
CPCM SOLVATION MODEL
--------------------
CPCM parameters:
  Epsilon                                         ...      20.4930
  Refrac                                          ...       1.3588
  Rsolv                                           ...       1.3000
  Surface type                                    ... GAUSSIAN VDW
  Epsilon function type                           ...         CPCM
Solvent:                                     ... ACETONE
SMD-CDS solvent descriptors:
  Soln                                       ...    1.3588
  Soln25                                     ...    1.3559
  Sola                                       ...    0.0400
  Solb                                       ...    0.4900
  Solg                                       ...   33.7700
  Solc                                       ...    0.0000
  Solh                                       ...    0.0000
Radii:
 Radius for O  used is    4.1990 Bohr (=   2.2220 Ang.)
 Radius for C  used is    3.4960 Bohr (=   1.8500 Ang.)
 Radius for H  used is    2.2677 Bohr (=   1.2000 Ang.)
Calculating surface                               ...        done! (  0.0s)
GEPOL surface points                              ...         1364
GEPOL Volume                                      ...    1570.4712
GEPOL Surface-area                                ...     820.8339
Calculating surface distance matrix               ...        done! (  0.0s)
Performing Cholesky decomposition & store         ...        done! (  0.1s)
Overall time for CPCM initialization              ...                 0.1s
--------------
SCF ITERATIONS
--------------
ITER       Energy         Delta-E        Max-DP      RMS-DP      [F,P]     Damp
               ***  Starting incremental Fock matrix formation  ***
  0   -651.9684992702   0.000000000000 0.22786147  0.00143837  0.3012317 0.7000
  1   -652.1235662963  -0.155067026188 0.23733239  0.00137763  0.1462242 0.7000
                               ***Turning on DIIS***
  2   -652.1982589414  -0.074692645058 0.43034373  0.00264056  0.0536253 0.0000
  3   -652.3256713682  -0.127412426826 0.16279859  0.00085733  0.0696035 0.0000
  4   -652.3432451019  -0.017573733673 0.02205070  0.00014557  0.0125616 0.0000
  5   -652.3440388908  -0.000793788906 0.01271460  0.00008606  0.0061450 0.0000
                      *** Initiating the SOSCF procedure ***
                           *** Shutting down DIIS ***
                      *** Re-Reading the Fockian *** 
                      *** Removing any level shift *** 
ITER      Energy       Delta-E        Grad      Rot      Max-DP    RMS-DP
  6   -652.34421895  -0.0001800614  0.001608  0.001608  0.012396  0.000079
               *** Restarting incremental Fock matrix formation ***
  7   -652.34428924  -0.0000702881  0.000590  0.001640  0.007114  0.000041
  8   -652.34429820  -0.0000089547  0.000327  0.002047  0.004938  0.000031
  9   -652.34430224  -0.0000040442  0.000093  0.000256  0.001053  0.000011
 10   -652.34430265  -0.0000004083  0.000032  0.000110  0.000703  0.000004
 11   -652.34430278  -0.0000001362  0.000025  0.000079  0.000288  0.000002
 12   -652.34430280  -0.0000000157  0.000009  0.000045  0.000094  0.000001
 13   -652.34430281  -0.0000000107  0.000003  0.000014  0.000110  0.000001
                  ***Gradient check signals convergence***
              ***Rediagonalizing the Fockian in SOSCF/NRSCF***

               *****************************************************
               *                     SUCCESS                       *
               *           SCF CONVERGED AFTER  14 CYCLES          *
               *****************************************************

Old exchange energy                            =    -26.500916667 Eh
New exchange energy                            =    -26.500923992 Eh
Exchange energy change after final integration =     -0.000007325 Eh
Total energy after final integration           =   -652.344310152 Eh
Final COS-X integration done in                =     7.994 sec

------------------
NL GRID GENERATION
------------------

General Integration Accuracy     IntAcc      ... 4.004
Radial Grid Type                 RadialGrid  ... OptM3 with GC (2021)
Angular Grid (max. ang.)         AngularGrid ... 2 (Lebedev-110)
Angular grid pruning method      GridPruning ... 4 (adaptive)
Weight generation scheme         WeightScheme... Becke
Basis function cutoff            BFCut       ... 1.0000e-10
Integration weight cutoff        WCut        ... 1.0000e-14
Angular grids for H and He will be reduced by one unit
Partially contracted basis set               ... off
Rotationally invariant grid construction     ... off

Total number of grid points                  ...    38490
Total number of batches                      ...      614
Average number of points per batch           ...       62
Average number of grid points per atom       ...     1480
Final grid set up in    0.1 sec

-------------------------------------------------------------------------------
                    post-SCF DFT-NL dispersion correction                      
-------------------------------------------------------------------------------

SCF Energy:   -652.344310152 
NL    Energy:  0.378500117 
SC+NL Energy: -651.965810035 
NL done in:    0.4 sec
-------------------------------------------------------------------------------

SMD CDS free energy correction energy :                -4.08861     Kcal/mol
Total Energy after SMD CDS correction =              -651.972325655 Eh
Total Energy       :         -651.97232566 Eh          -17741.06892 eV
  Last Energy change         ...   -1.6315e-08  Tolerance :   1.0000e-08
  Last MAX-Density change    ...    1.0105e-15  Tolerance :   1.0000e-07
             **** THE GBW FILE WAS UPDATED (orca_input.gbw) ****
             **** DENSITY orca_input.scfp WAS UPDATED ****
             **** ENERGY FILE WAS UPDATED (orca_input.en.tmp) ****
             **** THE GBW FILE WAS UPDATED (orca_input.gbw) ****
             **** DENSITY orca_input.scfp WAS UPDATED ****
----------------
ORBITAL ENERGIES
----------------

  NO   OCC          E(Eh)            E(eV) 
   0   2.0000     -19.405676      -528.0553 
   1   2.0000     -19.311165      -525.4835 
   2   2.0000     -19.288668      -524.8714 
   3   2.0000     -10.431903      -283.8665 
   4   2.0000     -10.424881      -283.6754 
   5   2.0000     -10.421837      -283.5926 
   6   2.0000     -10.420055      -283.5441 
   7   2.0000     -10.382153      -282.5127 
   8   2.0000     -10.353772      -281.7405 
   9   2.0000     -10.351584      -281.6809 
  10   2.0000     -10.351079      -281.6672 
  11   2.0000     -10.347066      -281.5580 
  12   2.0000     -10.346007      -281.5292 
  13   2.0000     -10.340729      -281.3855 
  14   2.0000      -1.231585       -33.5131 
  15   2.0000      -1.172478       -31.9048 
  16   2.0000      -1.149810       -31.2879 
  17   2.0000      -0.972331       -26.4585 
  18   2.0000      -0.911834       -24.8123 
  19   2.0000      -0.906734       -24.6735 
  20   2.0000      -0.892119       -24.2758 
  21   2.0000      -0.836884       -22.7728 
  22   2.0000      -0.780980       -21.2516 
  23   2.0000      -0.768428       -20.9100 
  24   2.0000      -0.734384       -19.9836 
  25   2.0000      -0.691849       -18.8262 
  26   2.0000      -0.665486       -18.1088 
  27   2.0000      -0.645464       -17.5640 
  28   2.0000      -0.634473       -17.2649 
  29   2.0000      -0.608473       -16.5574 
  30   2.0000      -0.591479       -16.0950 
  31   2.0000      -0.579882       -15.7794 
  32   2.0000      -0.563828       -15.3425 
  33   2.0000      -0.556712       -15.1489 
  34   2.0000      -0.542325       -14.7574 
  35   2.0000      -0.540087       -14.6965 
  36   2.0000      -0.531044       -14.4505 
  37   2.0000      -0.510706       -13.8970 
  38   2.0000      -0.508472       -13.8362 
  39   2.0000      -0.493805       -13.4371 
  40   2.0000      -0.482960       -13.1420 
  41   2.0000      -0.474597       -12.9144 
  42   2.0000      -0.464073       -12.6281 
  43   2.0000      -0.450043       -12.2463 
  44   2.0000      -0.445221       -12.1151 
  45   2.0000      -0.431080       -11.7303 
  46   2.0000      -0.386941       -10.5292 
  47   2.0000      -0.363866        -9.9013 
  48   2.0000      -0.350221        -9.5300 
  49   2.0000      -0.329763        -8.9733 
  50   2.0000      -0.304185        -8.2773 
  51   0.0000       0.011663         0.3174 
  52   0.0000       0.039672         1.0795 
  53   0.0000       0.055471         1.5094 
  54   0.0000       0.110442         3.0053 
  55   0.0000       0.122375         3.3300 
  56   0.0000       0.130934         3.5629 
  57   0.0000       0.137995         3.7550 
  58   0.0000       0.149134         4.0581 
  59   0.0000       0.155859         4.2412 
  60   0.0000       0.160390         4.3644 
  61   0.0000       0.162701         4.4273 
  62   0.0000       0.169893         4.6230 
  63   0.0000       0.176802         4.8110 
  64   0.0000       0.185921         5.0592 
  65   0.0000       0.189159         5.1473 
  66   0.0000       0.201953         5.4954 
  67   0.0000       0.205403         5.5893 
  68   0.0000       0.214966         5.8495 
  69   0.0000       0.228554         6.2193 
  70   0.0000       0.234803         6.3893 
  71   0.0000       0.240080         6.5329 
  72   0.0000       0.251797         6.8517 
  73   0.0000       0.256669         6.9843 
  74   0.0000       0.269146         7.3238 
  75   0.0000       0.285707         7.7745 
  76   0.0000       0.296426         8.0662 
  77   0.0000       0.301527         8.2050 
  78   0.0000       0.307976         8.3804 
  79   0.0000       0.309768         8.4292 
  80   0.0000       0.321914         8.7597 
  81   0.0000       0.326530         8.8853 
  82   0.0000       0.327936         8.9236 
  83   0.0000       0.337312         9.1787 
  84   0.0000       0.349191         9.5020 
  85   0.0000       0.352489         9.5917 
  86   0.0000       0.363277         9.8853 
  87   0.0000       0.375336        10.2134 
  88   0.0000       0.385349        10.4859 
  89   0.0000       0.386976        10.5301 
  90   0.0000       0.394785        10.7426 
  91   0.0000       0.412169        11.2157 
  92   0.0000       0.416431        11.3317 
  93   0.0000       0.421433        11.4678 
  94   0.0000       0.429829        11.6962 
  95   0.0000       0.433825        11.8050 
  96   0.0000       0.440741        11.9932 
  97   0.0000       0.450430        12.2568 
  98   0.0000       0.453446        12.3389 
  99   0.0000       0.465323        12.6621 
 100   0.0000       0.468986        12.7618 
 101   0.0000       0.479759        13.0549 
 102   0.0000       0.481993        13.1157 
 103   0.0000       0.489157        13.3106 
 104   0.0000       0.490507        13.3474 
 105   0.0000       0.501287        13.6407 
 106   0.0000       0.506539        13.7836 
 107   0.0000       0.510685        13.8964 
 108   0.0000       0.513275        13.9669 
 109   0.0000       0.521154        14.1813 
 110   0.0000       0.523767        14.2524 
 111   0.0000       0.528349        14.3771 
 112   0.0000       0.532969        14.5028 
 113   0.0000       0.542658        14.7665 
 114   0.0000       0.546095        14.8600 
 115   0.0000       0.550028        14.9670 
 116   0.0000       0.557465        15.1694 
 117   0.0000       0.561017        15.2660 
 118   0.0000       0.568132        15.4597 
 119   0.0000       0.581256        15.8168 
 120   0.0000       0.589297        16.0356 
 121   0.0000       0.598312        16.2809 
 122   0.0000       0.604177        16.4405 
 123   0.0000       0.611559        16.6414 
 124   0.0000       0.618776        16.8377 
 125   0.0000       0.633012        17.2251 
 126   0.0000       0.637564        17.3490 
 127   0.0000       0.644377        17.5344 
 128   0.0000       0.654729        17.8161 
 129   0.0000       0.661940        18.0123 
 130   0.0000       0.681250        18.5378 
 131   0.0000       0.687307        18.7026 
 132   0.0000       0.704088        19.1592 
 133   0.0000       0.710376        19.3303 
 134   0.0000       0.725078        19.7304 
 135   0.0000       0.739830        20.1318 
 136   0.0000       0.751722        20.4554 
 137   0.0000       0.754472        20.5302 
 138   0.0000       0.755562        20.5599 
 139   0.0000       0.767851        20.8943 
 140   0.0000       0.777425        21.1548 
 141   0.0000       0.787296        21.4234 
 142   0.0000       0.800328        21.7780 
 143   0.0000       0.807660        21.9776 
 144   0.0000       0.831945        22.6384 
 145   0.0000       0.845148        22.9976 
 146   0.0000       0.852101        23.1868 
 147   0.0000       0.866358        23.5748 
 148   0.0000       0.870819        23.6962 
 149   0.0000       0.884227        24.0610 
 150   0.0000       0.898387        24.4463 
 151   0.0000       0.900848        24.5133 
 152   0.0000       0.911850        24.8127 
 153   0.0000       0.918850        25.0032 
 154   0.0000       0.927636        25.2423 
 155   0.0000       0.932678        25.3795 
 156   0.0000       0.947914        25.7941 
 157   0.0000       0.959699        26.1147 
 158   0.0000       0.966282        26.2939 
 159   0.0000       0.972878        26.4733 
 160   0.0000       0.978096        26.6153 
 161   0.0000       0.995831        27.0979 
 162   0.0000       1.007288        27.4097 
 163   0.0000       1.016474        27.6597 
 164   0.0000       1.024063        27.8662 
 165   0.0000       1.026435        27.9307 
 166   0.0000       1.037041        28.2193 
 167   0.0000       1.053326        28.6625 
 168   0.0000       1.062535        28.9130 
 169   0.0000       1.064288        28.9608 
 170   0.0000       1.089226        29.6393 
 171   0.0000       1.102271        29.9943 
 172   0.0000       1.104112        30.0444 
 173   0.0000       1.114028        30.3142 
 174   0.0000       1.116834        30.3906 
 175   0.0000       1.135020        30.8855 
 176   0.0000       1.137574        30.9550 
 177   0.0000       1.150736        31.3131 
 178   0.0000       1.155412        31.4404 
 179   0.0000       1.164707        31.6933 
 180   0.0000       1.172907        31.9164 
 181   0.0000       1.182751        32.1843 
 182   0.0000       1.183113        32.1941 
 183   0.0000       1.188737        32.3472 
 184   0.0000       1.198615        32.6160 
 185   0.0000       1.209117        32.9017 
 186   0.0000       1.220310        33.2063 
 187   0.0000       1.233768        33.5725 
 188   0.0000       1.250303        34.0225 
 189   0.0000       1.253928        34.1211 
 190   0.0000       1.254381        34.1334 
 191   0.0000       1.267795        34.4984 
 192   0.0000       1.281993        34.8848 
 193   0.0000       1.294040        35.2126 
 194   0.0000       1.297330        35.3022 
 195   0.0000       1.300088        35.3772 
 196   0.0000       1.316607        35.8267 
 197   0.0000       1.320935        35.9445 
 198   0.0000       1.330484        36.2043 
 199   0.0000       1.346518        36.6406 
 200   0.0000       1.347926        36.6789 
 201   0.0000       1.364916        37.1412 
 202   0.0000       1.384144        37.6645 
 203   0.0000       1.393315        37.9140 
 204   0.0000       1.396935        38.0125 
 205   0.0000       1.406576        38.2749 
 206   0.0000       1.415089        38.5065 
 207   0.0000       1.429831        38.9077 
 208   0.0000       1.437626        39.1198 
 209   0.0000       1.446558        39.3628 
 210   0.0000       1.465447        39.8768 
 211   0.0000       1.474046        40.1108 
 212   0.0000       1.476586        40.1799 
 213   0.0000       1.496094        40.7108 
 214   0.0000       1.499509        40.8037 
 215   0.0000       1.504296        40.9340 
 216   0.0000       1.511036        41.1174 
 217   0.0000       1.523802        41.4648 
 218   0.0000       1.534488        41.7555 
 219   0.0000       1.546803        42.0907 
 220   0.0000       1.557891        42.3924 
 221   0.0000       1.569445        42.7068 
 222   0.0000       1.580089        42.9964 
 223   0.0000       1.588578        43.2274 
 224   0.0000       1.596910        43.4541 
 225   0.0000       1.601698        43.5844 
 226   0.0000       1.609036        43.7841 
 227   0.0000       1.615704        43.9655 
 228   0.0000       1.624096        44.1939 
 229   0.0000       1.636555        44.5329 
 230   0.0000       1.642772        44.7021 
 231   0.0000       1.650242        44.9054 
 232   0.0000       1.672395        45.5082 
 233   0.0000       1.682394        45.7803 
 234   0.0000       1.708135        46.4807 
 235   0.0000       1.713265        46.6203 
 236   0.0000       1.721846        46.8538 
 237   0.0000       1.727258        47.0011 
 238   0.0000       1.734800        47.2063 
 239   0.0000       1.746249        47.5179 
 240   0.0000       1.761495        47.9327 
 241   0.0000       1.769561        48.1522 
 242   0.0000       1.781869        48.4871 
 243   0.0000       1.790597        48.7246 
 244   0.0000       1.800121        48.9838 
 245   0.0000       1.809367        49.2354 
 246   0.0000       1.828412        49.7536 
 247   0.0000       1.834535        49.9202 
 248   0.0000       1.844459        50.1903 
 249   0.0000       1.851485        50.3815 
 250   0.0000       1.870860        50.9087 
 251   0.0000       1.879427        51.1418 
 252   0.0000       1.897123        51.6233 
 253   0.0000       1.913734        52.0753 
 254   0.0000       1.931322        52.5539 
 255   0.0000       1.940671        52.8083 
 256   0.0000       1.959444        53.3192 
 257   0.0000       1.968302        53.5602 
 258   0.0000       2.000686        54.4414 
 259   0.0000       2.018283        54.9203 
 260   0.0000       2.032733        55.3135 
 261   0.0000       2.042102        55.5684 
 262   0.0000       2.059091        56.0307 
 263   0.0000       2.092460        56.9387 
 264   0.0000       2.107462        57.3470 
 265   0.0000       2.113866        57.5212 
 266   0.0000       2.137923        58.1758 
 267   0.0000       2.146901        58.4201 
 268   0.0000       2.179939        59.3192 
 269   0.0000       2.188046        59.5398 
 270   0.0000       2.211515        60.1784 
 271   0.0000       2.225060        60.5470 
 272   0.0000       2.226822        60.5949 
 273   0.0000       2.251415        61.2641 
 274   0.0000       2.257799        61.4378 
 275   0.0000       2.290016        62.3145 
 276   0.0000       2.306449        62.7617 
 277   0.0000       2.310408        62.8694 
 278   0.0000       2.327150        63.3250 
 279   0.0000       2.343783        63.7776 
 280   0.0000       2.357439        64.1492 
 281   0.0000       2.366608        64.3987 
 282   0.0000       2.380111        64.7661 
 283   0.0000       2.391068        65.0643 
 284   0.0000       2.402304        65.3700 
 285   0.0000       2.416424        65.7542 
 286   0.0000       2.455172        66.8086 
 287   0.0000       2.456535        66.8457 
 288   0.0000       2.487114        67.6778 
 289   0.0000       2.492924        67.8359 
 290   0.0000       2.520216        68.5786 
 291   0.0000       2.534538        68.9683 
 292   0.0000       2.547561        69.3227 
 293   0.0000       2.561445        69.7005 
 294   0.0000       2.585188        70.3465 
 295   0.0000       2.594996        70.6134 
 296   0.0000       2.599470        70.7352 
 297   0.0000       2.611634        71.0662 
 298   0.0000       2.624888        71.4268 
 299   0.0000       2.646394        72.0120 
 300   0.0000       2.677016        72.8453 
 301   0.0000       2.684367        73.0453 
 302   0.0000       2.695885        73.3588 
 303   0.0000       2.706451        73.6463 
 304   0.0000       2.716169        73.9107 
 305   0.0000       2.736562        74.4656 
 306   0.0000       2.744115        74.6712 
 307   0.0000       2.765538        75.2541 
 308   0.0000       2.777784        75.5874 
 309   0.0000       2.780107        75.6505 
 310   0.0000       2.790177        75.9246 
 311   0.0000       2.792588        75.9902 
 312   0.0000       2.809544        76.4516 
 313   0.0000       2.825755        76.8927 
 314   0.0000       2.845342        77.4257 
 315   0.0000       2.850024        77.5531 
 316   0.0000       2.868033        78.0431 
 317   0.0000       2.871320        78.1326 
 318   0.0000       2.882980        78.4499 
 319   0.0000       2.891820        78.6904 
 320   0.0000       2.894169        78.7543 
 321   0.0000       2.913312        79.2753 
 322   0.0000       2.928008        79.6751 
 323   0.0000       2.937323        79.9286 
 324   0.0000       2.943290        80.0910 
 325   0.0000       2.958876        80.5151 
 326   0.0000       2.968984        80.7902 
 327   0.0000       2.985033        81.2269 
 328   0.0000       2.987032        81.2813 
 329   0.0000       2.999893        81.6312 
 330   0.0000       3.005022        81.7708 
 331   0.0000       3.015738        82.0624 
 332   0.0000       3.033584        82.5480 
 333   0.0000       3.050862        83.0182 
 334   0.0000       3.056039        83.1591 
 335   0.0000       3.062865        83.3448 
 336   0.0000       3.073051        83.6220 
 337   0.0000       3.084520        83.9341 
 338   0.0000       3.089201        84.0614 
 339   0.0000       3.099338        84.3373 
 340   0.0000       3.103604        84.4534 
 341   0.0000       3.116437        84.8026 
 342   0.0000       3.126947        85.0886 
 343   0.0000       3.135643        85.3252 
 344   0.0000       3.142663        85.5162 
 345   0.0000       3.150690        85.7346 
 346   0.0000       3.166110        86.1542 
 347   0.0000       3.172732        86.3344 
 348   0.0000       3.180163        86.5366 
 349   0.0000       3.185527        86.6826 
 350   0.0000       3.203472        87.1709 
 351   0.0000       3.206509        87.2535 
 352   0.0000       3.213083        87.4324 
 353   0.0000       3.228513        87.8523 
 354   0.0000       3.238095        88.1130 
 355   0.0000       3.249273        88.4172 
 356   0.0000       3.261503        88.7500 
 357   0.0000       3.264351        88.8275 
 358   0.0000       3.271807        89.0304 
 359   0.0000       3.276087        89.1469 
 360   0.0000       3.295971        89.6879 
 361   0.0000       3.298380        89.7535 
 362   0.0000       3.302578        89.8677 
 363   0.0000       3.313422        90.1628 
 364   0.0000       3.319409        90.3257 
 365   0.0000       3.327097        90.5349 
 366   0.0000       3.339017        90.8593 
 367   0.0000       3.348407        91.1148 
 368   0.0000       3.355023        91.2948 
 369   0.0000       3.371731        91.7495 
 370   0.0000       3.384136        92.0870 
 371   0.0000       3.398729        92.4841 
 372   0.0000       3.404483        92.6407 
 373   0.0000       3.416094        92.9566 
 374   0.0000       3.422690        93.1361 
 375   0.0000       3.432826        93.4119 
 376   0.0000       3.436168        93.5029 
 377   0.0000       3.458023        94.0976 
 378   0.0000       3.460267        94.1587 
 379   0.0000       3.467200        94.3473 
 380   0.0000       3.477807        94.6359 
 381   0.0000       3.493487        95.0626 
 382   0.0000       3.511573        95.5548 
 383   0.0000       3.520742        95.8043 
 384   0.0000       3.525040        95.9212 
 385   0.0000       3.537889        96.2708 
 386   0.0000       3.551759        96.6483 
 387   0.0000       3.560980        96.8992 
 388   0.0000       3.568540        97.1049 
 389   0.0000       3.576993        97.3349 
 390   0.0000       3.585389        97.5634 
 391   0.0000       3.596736        97.8722 
 392   0.0000       3.610238        98.2396 
 393   0.0000       3.619578        98.4937 
 394   0.0000       3.627635        98.7130 
 395   0.0000       3.649814        99.3165 
 396   0.0000       3.656947        99.5106 
 397   0.0000       3.669972        99.8650 
 398   0.0000       3.672035        99.9212 
 399   0.0000       3.681883       100.1891 
 400   0.0000       3.684257       100.2537 
 401   0.0000       3.692008       100.4647 
 402   0.0000       3.701272       100.7167 
 403   0.0000       3.712182       101.0136 
 404   0.0000       3.729847       101.4943 
 405   0.0000       3.737325       101.6978 
 406   0.0000       3.749328       102.0244 
 407   0.0000       3.759724       102.3073 
 408   0.0000       3.772711       102.6607 
 409   0.0000       3.776133       102.7538 
 410   0.0000       3.789601       103.1203 
 411   0.0000       3.794948       103.2658 
 412   0.0000       3.813370       103.7671 
 413   0.0000       3.823382       104.0395 
 414   0.0000       3.836135       104.3865 
 415   0.0000       3.842973       104.5726 
 416   0.0000       3.846540       104.6697 
 417   0.0000       3.864842       105.1677 
 418   0.0000       3.869984       105.3076 
 419   0.0000       3.882778       105.6558 
 420   0.0000       3.893999       105.9611 
 421   0.0000       3.910804       106.4184 
 422   0.0000       3.922108       106.7260 
 423   0.0000       3.931610       106.9845 
 424   0.0000       3.935886       107.1009 
 425   0.0000       3.941544       107.2549 
 426   0.0000       3.951217       107.5181 
 427   0.0000       3.971704       108.0756 
 428   0.0000       3.981099       108.3312 
 429   0.0000       3.995210       108.7152 
 430   0.0000       4.001820       108.8951 
 431   0.0000       4.020035       109.3907 
 432   0.0000       4.029250       109.6415 
 433   0.0000       4.034617       109.7875 
 434   0.0000       4.050946       110.2319 
 435   0.0000       4.060023       110.4789 
 436   0.0000       4.067113       110.6718 
 437   0.0000       4.070512       110.7643 
 438   0.0000       4.092919       111.3740 
 439   0.0000       4.094960       111.4295 
 440   0.0000       4.106555       111.7450 
 441   0.0000       4.110307       111.8471 
 442   0.0000       4.130330       112.3920 
 443   0.0000       4.149449       112.9123 
 444   0.0000       4.152065       112.9834 
 445   0.0000       4.164276       113.3157 
 446   0.0000       4.167980       113.4165 
 447   0.0000       4.172789       113.5474 
 448   0.0000       4.187203       113.9396 
 449   0.0000       4.200016       114.2883 
 450   0.0000       4.207319       114.4870 
 451   0.0000       4.217764       114.7712 
 452   0.0000       4.222577       114.9022 
 453   0.0000       4.233581       115.2016 
 454   0.0000       4.246276       115.5470 
 455   0.0000       4.254457       115.7697 
 456   0.0000       4.258886       115.8902 
 457   0.0000       4.267367       116.1210 
 458   0.0000       4.279696       116.4564 
 459   0.0000       4.293124       116.8219 
 460   0.0000       4.306967       117.1985 
 461   0.0000       4.315284       117.4248 
 462   0.0000       4.327399       117.7545 
 463   0.0000       4.336563       118.0039 
 464   0.0000       4.350929       118.3948 
 465   0.0000       4.368015       118.8597 
 466   0.0000       4.374893       119.0469 
 467   0.0000       4.390330       119.4669 
 468   0.0000       4.397886       119.6726 
 469   0.0000       4.417296       120.2007 
 470   0.0000       4.425795       120.4320 
 471   0.0000       4.439770       120.8123 
 472   0.0000       4.440441       120.8305 
 473   0.0000       4.462590       121.4332 
 474   0.0000       4.465228       121.5050 
 475   0.0000       4.483440       122.0006 
 476   0.0000       4.497713       122.3890 
 477   0.0000       4.508024       122.6696 
 478   0.0000       4.527515       123.2000 
 479   0.0000       4.542243       123.6007 
 480   0.0000       4.548462       123.7699 
 481   0.0000       4.559905       124.0813 
 482   0.0000       4.573986       124.4645 
 483   0.0000       4.615010       125.5808 
 484   0.0000       4.638062       126.2081 
 485   0.0000       4.642184       126.3203 
 486   0.0000       4.653258       126.6216 
 487   0.0000       4.669993       127.0770 
 488   0.0000       4.682192       127.4089 
 489   0.0000       4.708248       128.1179 
 490   0.0000       4.732483       128.7774 
 491   0.0000       4.750343       129.2634 
 492   0.0000       4.785173       130.2112 
 493   0.0000       4.790529       130.3569 
 494   0.0000       4.809200       130.8650 
 495   0.0000       4.817461       131.0898 
 496   0.0000       4.852690       132.0484 
 497   0.0000       4.866330       132.4196 
 498   0.0000       4.884125       132.9038 
 499   0.0000       4.899589       133.3246 
 500   0.0000       4.907621       133.5432 
 501   0.0000       4.914982       133.7435 
 502   0.0000       4.926514       134.0573 
 503   0.0000       4.938084       134.3721 
 504   0.0000       4.956410       134.8708 
 505   0.0000       4.968327       135.1950 
 506   0.0000       4.979200       135.4909 
 507   0.0000       5.009982       136.3285 
 508   0.0000       5.010982       136.3557 
 509   0.0000       5.024292       136.7179 
 510   0.0000       5.034913       137.0070 
 511   0.0000       5.061627       137.7339 
 512   0.0000       5.075004       138.0979 
 513   0.0000       5.109657       139.0408 
 514   0.0000       5.121941       139.3751 
 515   0.0000       5.123371       139.4140 
 516   0.0000       5.138404       139.8231 
 517   0.0000       5.175719       140.8385 
 518   0.0000       5.195246       141.3698 
 519   0.0000       5.202247       141.5604 
 520   0.0000       5.213601       141.8693 
 521   0.0000       5.246037       142.7519 
 522   0.0000       5.249028       142.8333 
 523   0.0000       5.284714       143.8044 
 524   0.0000       5.290875       143.9720 
 525   0.0000       5.309351       144.4748 
 526   0.0000       5.320467       144.7773 
 527   0.0000       5.325348       144.9101 
 528   0.0000       5.336149       145.2040 
 529   0.0000       5.355270       145.7243 
 530   0.0000       5.365685       146.0077 
 531   0.0000       5.393538       146.7656 
 532   0.0000       5.406140       147.1086 
 533   0.0000       5.435639       147.9112 
 534   0.0000       5.441713       148.0766 
 535   0.0000       5.455992       148.4651 
 536   0.0000       5.465178       148.7151 
 537   0.0000       5.482748       149.1932 
 538   0.0000       5.506680       149.8444 
 539   0.0000       5.526328       150.3790 
 540   0.0000       5.539784       150.7452 
 541   0.0000       5.542502       150.8191 
 542   0.0000       5.568257       151.5200 
 543   0.0000       5.582419       151.9053 
 544   0.0000       5.599305       152.3648 
 545   0.0000       5.629278       153.1804 
 546   0.0000       5.650401       153.7552 
 547   0.0000       5.682222       154.6211 
 548   0.0000       5.693029       154.9152 
 549   0.0000       5.694888       154.9658 
 550   0.0000       5.729537       155.9086 
 551   0.0000       5.737169       156.1163 
 552   0.0000       5.748920       156.4361 
 553   0.0000       5.755154       156.6057 
 554   0.0000       5.783873       157.3872 
 555   0.0000       5.800339       157.8353 
 556   0.0000       5.840282       158.9222 
 557   0.0000       5.877242       159.9279 
 558   0.0000       5.882624       160.0743 
 559   0.0000       5.930105       161.3664 
 560   0.0000       5.948341       161.8626 
 561   0.0000       6.065325       165.0459 
 562   0.0000       6.118723       166.4989 
 563   0.0000       6.226532       169.4325 
 564   0.0000       6.252507       170.1394 
 565   0.0000       6.321793       172.0247 
 566   0.0000       6.329449       172.2331 
 567   0.0000       6.508477       177.1047 
 568   0.0000       6.541157       177.9939 
 569   0.0000       6.556311       178.4063 
 570   0.0000       6.584467       179.1725 
 571   0.0000       6.593133       179.4083 
 572   0.0000       6.650074       180.9577 
 573   0.0000       6.720024       182.8612 
 574   0.0000       6.739732       183.3974 
 575   0.0000       6.752202       183.7367 
 576   0.0000       6.851630       186.4423 
 577   0.0000       6.966360       189.5643 
 578   0.0000       6.991145       190.2387 
 579   0.0000       7.001894       190.5312 
 580   0.0000       7.040896       191.5925 
 581   0.0000       7.102092       193.2578 
 582   0.0000       7.210011       196.1944 
 583   0.0000       7.240263       197.0176 
 584   0.0000       7.247343       197.2102 
 585   0.0000       7.283092       198.1830 
 586   0.0000       7.405954       201.5262 
 587   0.0000       7.455749       202.8812 
 588   0.0000      23.195009       631.1683 
 589   0.0000      23.438675       637.7988 
 590   0.0000      23.487880       639.1377 
 591   0.0000      23.564791       641.2306 
 592   0.0000      23.587457       641.8473 
 593   0.0000      23.683460       644.4597 
 594   0.0000      23.694603       644.7629 
 595   0.0000      23.725378       645.6004 
 596   0.0000      23.772411       646.8802 
 597   0.0000      23.980147       652.5330 
 598   0.0000      24.089158       655.4993 
 599   0.0000      44.460486      1209.8313 
 600   0.0000      44.487752      1210.5733 
 601   0.0000      44.843077      1220.2422 
Total SCF time: 0 days 0 hours 1 min 8 sec 

Maximum memory used throughout the entire SCF-calculation: 120.5 MB

-------------------------   --------------------
FINAL SINGLE POINT ENERGY      -651.972325655306
-------------------------   --------------------


                            ***************************************
                            *     ORCA property calculations      *
                            ***************************************

                                    ---------------------
                                    Active property flags
                                    ---------------------
   (+) Dipole Moment


------------------------------------------------------------------------------
                       ORCA ELECTRIC PROPERTIES CALCULATION
------------------------------------------------------------------------------

Dipole Moment Calculation                       ... on
Quadrupole Moment Calculation                   ... off
Polarizability Calculation                      ... off
GBWName                                         ... orca_input.gbw
Electron density                                ... orca_input.scfp
The origin for moment calculation is the CENTER OF MASS  = ( 0.097370,  0.014560 -0.024769)

-------------
DIPOLE MOMENT
-------------
                                X             Y             Z
Electronic contribution:      7.80598       0.96633       0.18432
Nuclear contribution   :     -9.93178      -1.48507       2.52645
                        -----------------------------------------
Total Dipole Moment    :     -2.12580      -0.51874       2.71077
                        -----------------------------------------
Magnitude (a.u.)       :      3.48373
Magnitude (Debye)      :      8.85495



--------------------
Rotational spectrum 
--------------------
 
Rotational constants in cm-1:     0.036446     0.021815     0.018850 
Rotational constants in MHz :  1092.617776   653.999052   565.105766 

 Dipole components along the rotational axes: 
x,y,z [a.u.] :    -2.035242    -0.982330     2.651267 
x,y,z [Debye]:    -5.173174    -2.496884     6.738985 

 

Timings for individual modules:

Sum of individual times         ...       72.807 sec (=   1.213 min)
GTO integral calculation        ...        2.165 sec (=   0.036 min)   3.0 %
SCF iterations                  ...       70.642 sec (=   1.177 min)  97.0 %
                             ****ORCA TERMINATED NORMALLY****
TOTAL RUN TIME: 0 days 0 hours 1 minutes 14 seconds 601 msec
