          26
 Energy =    -41.88650949 a.u.  #Cluster:    1
O           2.77215254      0.54227474      1.51436006
C           1.92394101      0.51771162      0.64344107
C           0.72921416      1.35821063      0.64171537
C          -0.21949522      1.19097054     -0.29107771
C          -1.53763167      1.89004350     -0.28334178
C          -2.58885615      1.02873200      0.43664665
C          -2.64045318     -0.40565667     -0.11113280
C          -1.39390972     -1.14938601      0.31687889
O          -1.27532075     -1.61892033      1.42241864
C          -0.29831722     -1.24430061     -0.73209458
C           1.06408839     -1.67543237     -0.17393807
C           1.97621921     -0.47074366     -0.51932041
O           1.39203305      0.09130090     -1.67628947
C           0.02300893      0.15145594     -1.35665937
H           0.63752795      2.08727631      1.43360264
H          -1.45171876      2.84565885      0.23480320
H          -1.86369685      2.07372874     -1.30876210
H          -3.56724072      1.49490467      0.31645186
H          -2.35775635      0.98687959      1.50261337
H          -2.74244994     -0.39386209     -1.19545285
H          -3.50127977     -0.91137106      0.33006096
H          -0.64090081     -1.92774557     -1.51339684
H           1.01469053     -1.85235375      0.90051812
H           1.43190877     -2.57415153     -0.66461288
H           3.00644887     -0.75110056     -0.74137351
H          -0.52371216      0.36356726     -2.27592123
          26
 Energy =    -41.88394622 a.u.  #Cluster:    2
O           2.76766224      0.38002232      1.52701497
C           1.90877523      0.43381301      0.66716527
C           0.72801539      1.29059661      0.74919757
C          -0.23374195      1.21150976     -0.18236932
C          -1.56201064      1.88594241     -0.12290362
C          -2.67153324      0.90548164     -0.52403901
C          -2.63491161     -0.36510381      0.32604349
C          -1.29744005     -1.05559286      0.48800746
O          -1.00834938     -1.57488582      1.54104980
C          -0.36798190     -1.15476102     -0.72259452
C           1.01810392     -1.69028522     -0.33446381
C           1.93769587     -0.46726860     -0.56704141
O           1.34531487      0.18727186     -1.66834475
C          -0.01463711      0.24850290     -1.31837496
H           0.64832019      1.93783853      1.61051077
H          -1.73593233      2.27142672      0.88277153
H          -1.56607512      2.73263783     -0.81512912
H          -2.58825646      0.65308911     -1.58065120
H          -3.63946936      1.38745054     -0.38074315
H          -3.31398995     -1.10761161     -0.10433864
H          -2.99277868     -0.15196768      1.33626819
H          -0.85134432     -1.78272411     -1.47405330
H           1.04153710     -2.02757719      0.70094477
H           1.32592019     -2.50473506     -0.98731184
H           2.96387946     -0.73742223     -0.81938197
H          -0.56425820      0.51369828     -2.21997058
          26
 Energy =    -41.88051555 a.u.  #Cluster:    3
O           3.01942669      0.84119670      1.31030942
C           2.07527241      0.70032951      0.55827212
C           0.88659697      1.54776373      0.55429730
C          -0.13605527      1.28400031     -0.27258860
C          -1.44958423      1.98471499     -0.23260604
C          -2.57951124      0.95189036     -0.11566846
C          -2.24278455     -0.14452553      0.90468549
C          -1.56359543     -1.35846214      0.31387172
O          -1.96756950     -2.47285820      0.55726142
C          -0.34271253     -1.20491282     -0.57598976
C           0.96462876     -1.49069762      0.19750472
C           1.95750989     -0.46549519     -0.42052312
O           1.35051022     -0.02330705     -1.61590555
C          -0.00355228      0.15025535     -1.25027158
H           0.85937011      2.36653199      1.25884927
H          -1.47485257      2.66811786      0.61707487
H          -1.58429062      2.57030846     -1.14512196
H          -2.78323371      0.49400178     -1.08447794
H          -3.48745573      1.46494232      0.20117165
H          -3.15182522     -0.50683168      1.38938101
H          -1.59163967      0.26288597      1.68251751
H          -0.43622022     -1.95206225     -1.37081252
H           0.85054500     -1.32433743      1.26953909
H           1.30390613     -2.51196322      0.04418682
H           2.93560614     -0.88723531     -0.65409926
H          -0.57226193      0.33120678     -2.16322649
          26
 Energy =    -41.87774507 a.u.  #Cluster:    4
O           2.90369875      0.98820736      1.36173322
C           2.01441887      0.75896457      0.56539868
C           0.79206506      1.54804508      0.44334200
C          -0.17777900      1.16618716     -0.40255729
C          -1.56984192      1.70012031     -0.37446775
C          -2.37127945      1.03879682      0.77507339
C          -1.77790432     -0.29562546      1.26393039
C          -1.59920225     -1.27273497      0.12573782
O          -2.50478227     -1.97935621     -0.25242393
C          -0.25843356     -1.31907230     -0.58324821
C           1.01118363     -1.51836514      0.26185887
C           2.00274369     -0.47363214     -0.33612486
O           1.46188912     -0.12257265     -1.59250379
C           0.08851058      0.01017177     -1.32579878
H           0.67634671      2.39099009      1.10894618
H          -1.55694979      2.77977633     -0.22493033
H          -2.05872868      1.49011035     -1.32647163
H          -3.39412046      0.86970765      0.43885427
H          -2.40349966      1.71017258      1.63329875
H          -2.48250009     -0.73472451      1.97297365
H          -0.83407341     -0.10898051      1.77286787
H          -0.32157670     -2.10834029     -1.33803642
H           0.85329747     -1.33956751      1.32458939
H           1.40202235     -2.52626106      0.14069589
H           3.01124174     -0.86279237     -0.48016868
H          -0.43728503      0.11678954     -2.27577292
