          26
 Energy =    -41.88650953 a.u.  #Cluster:    1
O           2.77234453      0.54199480      1.51434693
C           1.92403007      0.51743764      0.64352132
C           0.72957827      1.35831321      0.64165071
C          -0.21927469      1.19106847     -0.29101278
C          -1.53738358      1.89018415     -0.28312482
C          -2.58879995      1.02893878      0.43666552
C          -2.64056378     -0.40537816     -0.11131539
C          -1.39412197     -1.14916642      0.31683936
O          -1.27586745     -1.61920653      1.42220321
C          -0.29846771     -1.24414752     -0.73202579
C           1.06388310     -1.67534996     -0.17383118
C           1.97624374     -0.47091833     -0.51933681
O           1.39208155      0.09110081     -1.67634911
C           0.02308392      0.15153009     -1.35659979
H           0.63800111      2.08742071      1.43355700
H          -1.45139659      2.84568121      0.23522633
H          -1.86343298      2.07403099     -1.30853380
H          -3.56714667      1.49520615      0.31668848
H          -2.35765353      0.98674827      1.50261841
H          -2.74243892     -0.39348416     -1.19563987
H          -3.50146849     -0.91110639      0.32968437
H          -0.64111886     -1.92753760     -1.51331357
H           1.01430504     -1.85203748      0.90062795
H           1.43158626     -2.57415228     -0.66431707
H           3.00637317     -0.75164573     -0.74139339
H          -0.52368130      0.36366143     -2.27583049
          26
 Energy =    -41.88394543 a.u.  #Cluster:    2
O           2.76813122      0.37993258      1.52674877
C           1.90896810      0.43360388      0.66716563
C           0.72823453      1.29042331      0.74935186
C          -0.23359955      1.21153636     -0.18214721
C          -1.56172772      1.88624023     -0.12267393
C          -2.67131082      0.90593703     -0.52429223
C          -2.63489157     -0.36469151      0.32566829
C          -1.29771096     -1.05566271      0.48791608
O          -1.00900564     -1.57539766      1.54087045
C          -0.36802109     -1.15478696     -0.72250282
C           1.01794776     -1.69030461     -0.33412091
C           1.93758591     -0.46740473     -0.56705859
O           1.34512605      0.18724299     -1.66827098
C          -0.01476252      0.24853197     -1.31820215
H           0.64867087      1.93763570      1.61069024
H          -1.73561493      2.27151229      0.88310591
H          -1.56550119      2.73313969     -0.81473287
H          -2.58789992      0.65371412     -1.58093333
H          -3.63925597      1.38784773     -0.38112357
H          -3.31413439     -1.10696870     -0.10485985
H          -2.99271453     -0.15134254      1.33588624
H          -0.85122686     -1.78272844     -1.47408122
H           1.04143854     -2.02738012      0.70139680
H           1.32574602     -2.50480663     -0.98692356
H           2.96378960     -0.73731902     -0.81948636
H          -0.56428085      0.51380629     -2.21980414
          26
 Energy =    -41.88051543 a.u.  #Cluster:    3
O           3.02356636      0.84773183      1.30602005
C           2.07788481      0.70330470      0.55662746
C           0.88884582      1.55022957      0.55124340
C          -0.13494424      1.28332195     -0.27330051
C          -1.44893376      1.98321386     -0.23136778
C          -2.57807125      0.95055139     -0.10472329
C          -2.23352439     -0.14579419      0.91370195
C          -1.56712199     -1.36023773      0.30972880
O          -1.98533393     -2.47309921      0.53516207
C          -0.34181982     -1.20688441     -0.57370258
C           0.96304902     -1.48738690      0.20547195
C           1.95785298     -0.46644327     -0.41715683
O           1.35128897     -0.02719097     -1.61393360
C          -0.00280187      0.14780726     -1.24911430
H           0.86199572      2.37115560      1.25330385
H          -1.47083174      2.67047187      0.61528529
H          -1.58811229      2.56445711     -1.14597052
H          -2.78907408      0.49195352     -1.07168487
H          -3.48352150      1.46392540      0.21851183
H          -3.13852718     -0.50497282      1.40803483
H          -1.57205881      0.25982035      1.68347423
H          -0.42967944     -1.95549049     -1.36780540
H           0.84609060     -1.31305628      1.27596770
H           1.30250184     -2.50979925      0.06053750
H           2.93504624     -0.89085702     -0.64963422
H          -0.57151458      0.32757712     -2.16233911
          26
 Energy =    -41.87774413 a.u.  #Cluster:    4
O           2.90292953      0.98837022      1.36227558
C           2.01395601      0.75887435      0.56568113
C           0.79158151      1.54780801      0.44308079
C          -0.17786530      1.16565601     -0.40312932
C          -1.57054323      1.69803074     -0.37474774
C          -2.36863021      1.03963353      0.77862555
C          -1.77705874     -0.29657267      1.26490254
C          -1.59967365     -1.27179812      0.12488079
O          -2.50634115     -1.97603252     -0.25511321
C          -0.25856375     -1.31928902     -0.58355573
C           1.01106732     -1.51875076      0.26148105
C           2.00285669     -0.47381460     -0.33575694
O           1.46251688     -0.12294735     -1.59240628
C           0.08906899      0.00975642     -1.32630363
H           0.67530476      2.39058212      1.10878999
H          -1.55915290      2.77826537     -0.22931205
H          -2.06072585      1.48363824     -1.32508281
H          -3.39346791      0.87381522      0.44697806
H          -2.39479691      1.71123196      1.63686798
H          -2.48185323     -0.73617444      1.97344349
H          -0.83279602     -0.11196452      1.77375602
H          -0.32208347     -2.10861520     -1.33824166
H           0.85322382     -1.34064331      1.32432860
H           1.40198645     -2.52655482      0.13964386
H           3.01149781     -0.86277418     -0.47933109
H          -0.43639985      0.11626162     -2.27646533
