26
 energy: -41.773581689478 gnorm: 0.195323085926 xtb: 6.7.1 (edcfbbe)
O            2.93258600000000       -0.67839800000000       -1.43445900000000
C            2.04891400000000       -0.58406300000000       -0.59853600000000
C            0.86796500000000       -1.46479900000000       -0.55394100000000
C           -0.12595700000000       -1.21891400000000        0.32902600000000
C           -1.46057100000000       -1.90171500000000        0.31303400000000
C           -2.53781400000000       -1.05870000000000       -0.40356400000000
C           -2.64122400000000        0.40189300000000        0.08235600000000
C           -1.42459200000000        1.20392300000000       -0.35168300000000
O           -1.37926700000000        1.72989400000000       -1.44505200000000
C           -0.33024457780000        1.55733342630000        0.48773517270000
C            0.89439636910000        1.92474104730000       -0.08409734450000
C            2.23321463090000        0.29394695270000        0.53886034450000
O            1.44674500000000        0.04141600000000        1.64796900000000
C            0.14462657780000       -0.35963842630000        1.45712482730000
H            0.80280500000000       -2.26385100000000       -1.29761700000000
H           -1.37880300000000       -2.87596400000000       -0.19128600000000
H           -1.78371700000000       -2.08829200000000        1.35106700000000
H           -3.51380100000000       -1.54838900000000       -0.26534200000000
H           -2.33242000000000       -1.05132900000000       -1.48609200000000
H           -2.76244100000000        0.43292200000000        1.17707100000000
H           -3.52333600000000        0.86964700000000       -0.37804200000000
H           -0.56571800000000        1.99289200000000        1.41338900000000
H            1.02057000000000        1.79094300000000       -1.08276100000000
H            1.44975500000000        2.63576600000000        0.42131100000000
H            3.06468200000000        0.85620100000000        0.65144100000000
H           -0.49037800000000       -0.25788700000000        2.24130100000000
26
 energy: -41.799747629821 gnorm: 0.060405921727 xtb: 6.7.1 (edcfbbe)
O            2.92478015068021       -0.66847880496793       -1.46192540379262
C            2.06893104883893       -0.63236026179114       -0.57538208195897
C            0.86315363671384       -1.45661147105707       -0.56686162779361
C           -0.11352527572838       -1.23064078690122        0.34709915374119
C           -1.45987504441868       -1.89541556656563        0.32070951122016
C           -2.52847872115847       -1.05578167529468       -0.40514083120236
C           -2.63087269444953        0.39811503777149        0.08660469468215
C           -1.45478587583091        1.23291915455746       -0.38482435109824
O           -1.43280362148431        1.69861067170476       -1.51644731228329
C           -0.33713274003686        1.57436068976048        0.48539766934657
C            0.88678896947115        1.93488778337330       -0.08205443558094
C            2.18433726669245        0.28234614372052        0.55264523952779
O            1.44383699053164        0.03769122165928        1.66301725322622
C            0.16770702330609       -0.33990878250770        1.43706217970549
H            0.78521592041560       -2.23003986725750       -1.32048184103016
H           -1.38215485780725       -2.86008367268804       -0.19002385597079
H           -1.78811750628324       -2.08414893171277        1.34813134269593
H           -3.49919623940440       -1.54238435313042       -0.26328553042029
H           -2.32329224336053       -1.04512635800367       -1.48078805294992
H           -2.74392764732982        0.43213566293181        1.17435658135082
H           -3.51697991746299        0.84872785924138       -0.37154581274299
H           -0.57353261493618        1.98726858673285        1.44799262328081
H            1.02065758259647        1.80098991912985       -1.12513943269459
H            1.48111780003920        2.64806607767656        0.43911870289196
H            3.08236820330346        0.83008829342792        0.69592069256158
H           -0.46824359289718       -0.28564756980992        2.28505792528796
26
 energy: -41.805845828021 gnorm: 0.025069539274 xtb: 6.7.1 (edcfbbe)
O            2.90542905466037       -0.65015132410062       -1.47002907644205
C            2.04486667067795       -0.60457541698567       -0.59031372085336
C            0.85138989230916       -1.42746185710715       -0.57453713336554
C           -0.11523687649639       -1.22253312661499        0.36041062299405
C           -1.45922645035698       -1.88859335313483        0.32847358976501
C           -2.51817806808477       -1.04928275743979       -0.40446038244879
C           -2.62263865392191        0.39987278452905        0.09086437459915
C           -1.46271124936313        1.22571074159647       -0.42686135959875
O           -1.46325519096905        1.64146644493794       -1.57750796351620
C           -0.34167718173444        1.57699765657390        0.46837658081366
C            0.88400792612706        1.93858116820244       -0.08776451358643
C            2.15700021992060        0.27680356413131        0.56873460733194
O            1.42559159847535        0.05572608010045        1.66720467313020
C            0.17266702749516       -0.32656996613539        1.43446334886312
H            0.76453938858099       -2.18515584424255       -1.33716184761405
H           -1.37555325438038       -2.84748442990349       -0.18508575965906
H           -1.79277641007163       -2.07323478402929        1.35026030749507
H           -3.48504872435131       -1.53488693351584       -0.26191093705825
H           -2.30545980625338       -1.03555352807521       -1.47470766505444
H           -2.70451831806413        0.43514644486894        1.17677537885159
H           -3.52305126070607        0.83360101255663       -0.35242469617752
H           -0.59350792569677        1.96475356268306        1.45077281235400
H            1.02007243970895        1.82748134188488       -1.15190326134404
H            1.50956911165466        2.64038161336317        0.44121202896904
H            3.12374555767748        0.74977638007922        0.76162889303352
H           -0.44006351683687       -0.34123647422267        2.33470409851785
26
 energy: -41.807395694343 gnorm: 0.021089542935 xtb: 6.7.1 (edcfbbe)
O            2.88685575474994       -0.61707013233409       -1.48109296734029
C            2.04068018916559       -0.59764196517230       -0.58473316197304
C            0.83025360092954       -1.39610943131809       -0.59019534174009
C           -0.12334039226479       -1.20889299386858        0.36475825042940
C           -1.46024741419641       -1.88480414030779        0.33822509543167
C           -2.51561587193295       -1.04972561364395       -0.40186797011532
C           -2.61360289798762        0.39949464247217        0.09306538720725
C           -1.45409467124884        1.20544543230826       -0.45398267462612
O           -1.45082875594538        1.57800280877114       -1.61689779191979
C           -0.34112879648752        1.56768480904306        0.45554770188161
C            0.88885663634143        1.93125341506675       -0.08425469076339
C            2.15498991021546        0.26908197955957        0.58712471190038
O            1.42013896876026        0.06138390036298        1.67794771139955
C            0.17293356990407       -0.32577222314616        1.44492502802125
H            0.72027327473265       -2.12804121989588       -1.37800046589597
H           -1.36982018279476       -2.84326608797243       -0.17374584352264
H           -1.79748940730484       -2.06493222715721        1.35948756054679
H           -3.48261378867704       -1.53525955155533       -0.26508905708512
H           -2.29260506475949       -1.03329821710331       -1.46986104719770
H           -2.66535275890605        0.43892625462514        1.18060462181715
H           -3.52480931415112        0.82933591333576       -0.33124691830366
H           -0.61577506842475        1.95029292107019        1.43339182410825
H            1.03148398583068        1.83414555128258       -1.15112853438289
H            1.51952350934388        2.63072399672120        0.44241214643153
H            3.12815815425678        0.72265662580898        0.79231669332963
H           -0.43084716914831       -0.35403544695272        2.35150273236121
26
 energy: -41.808559708113 gnorm: 0.014750153800 xtb: 6.7.1 (edcfbbe)
O            2.85866992290272       -0.57132538245185       -1.49571622509015
C            2.01971011741560       -0.56740173162753       -0.59514669830800
C            0.80600501184157       -1.35922163827152       -0.60470979020904
C           -0.13224345753448       -1.19842239718328        0.37056559984294
C           -1.46375682838325       -1.88187514466855        0.34839255293999
C           -2.51744799147001       -1.05362376272218       -0.40049918505075
C           -2.59964262808911        0.39697134907636        0.09564586457579
C           -1.43601828028278        1.17590171277033       -0.48196411878028
O           -1.41495187059540        1.48534990711952       -1.66166190482035
C           -0.33910673637775        1.55821867227758        0.44419434600961
C            0.89561747424975        1.92570249492361       -0.07430041764836
C            2.15647149417179        0.26168215975469        0.60346822399513
O            1.41593726136680        0.06080265300257        1.68774485100700
C            0.16940717206382       -0.32580066321196        1.45731989488445
H            0.67361388581269       -2.06291662795576       -1.41604471741609
H           -1.36605058606922       -2.84409844661564       -0.15444162230332
H           -1.80495718886816       -2.05300357014145        1.37030713798206
H           -3.48691791691919       -1.53656548513748       -0.27354090185634
H           -2.28170878198684       -1.03510412498789       -1.46619376063887
H           -2.61671926485305        0.44010945169972        1.18446868634964
H           -3.52003659801729        0.83159217316918       -0.30148590779681
H           -0.64743170826221        1.93773227818908        1.41094569707391
H            1.05418521955711        1.83415747034683       -1.13898803758880
H            1.53016928404413        2.62144136570691        0.44940926012659
H            3.13047936655870        0.69364288357839        0.82032722375922
H           -0.42730037227582       -0.35436659663977        2.36111694896039
26
 energy: -41.809094875426 gnorm: 0.009426941587 xtb: 6.7.1 (edcfbbe)
O            2.83646831580260       -0.53690765914267       -1.50867568418493
C            2.00313079331310       -0.54835342071301       -0.60405448150543
C            0.78610392849636       -1.33520034615709       -0.61579387235012
C           -0.14161096375259       -1.19316242551109        0.37035829626860
C           -1.46963649324307       -1.88420129060404        0.35629094366702
C           -2.52123201419680       -1.06009023284157       -0.40009837444138
C           -2.58567960446893        0.39316415580988        0.09352201069257
C           -1.41136024785041        1.14786331410977       -0.49571573531345
O           -1.36848136899317        1.41043529295378       -1.68381104942533
C           -0.33310226600013        1.55658917972128        0.44119444865385
C            0.90108466319558        1.93521366149765       -0.06469378982788
C            2.15326197830335        0.26149978050910        0.60642081896058
O            1.41119751681022        0.05724118027051        1.68908781305364
C            0.16204074349703       -0.32636247878732        1.46209131505217
H            0.64398279455959       -2.02491796479448       -1.43390865334014
H           -1.36847009783713       -2.85289056655062       -0.13385939770210
H           -1.81084332992913       -2.04389298697844        1.38060133704493
H           -3.49366941216783       -1.53726793488977       -0.27544363783482
H           -2.28126675552781       -1.04606029587218       -1.46501425111726
H           -2.58757123525484        0.43750987156290        1.18112316154365
H           -3.50498059686435        0.84111191939941       -0.28797625534456
H           -0.66761743222146        1.93366253884635        1.39858615886233
H            1.07311328069465        1.84343778043719       -1.12575870588801
H            1.53436571573674        2.62801457930178        0.46090406579234
H            3.12593711257074        0.67985864305617        0.82821813389438
H           -0.42918902467238       -0.35671529463358        2.36561838478885
26
 energy: -41.809460484537 gnorm: 0.012802964863 xtb: 6.7.1 (edcfbbe)
O            2.81571870114946       -0.50944263501398       -1.52558112889786
C            1.98817006755210       -0.53169406560623       -0.61681834562144
C            0.77174156812788       -1.31940350116819       -0.62410319432652
C           -0.14694900357161       -1.18978662161880        0.36924497449114
C           -1.47487622351961       -1.88465165931400        0.36408640727018
C           -2.52722718259274       -1.06738811136434       -0.39896738314730
C           -2.57687139639331        0.38951564411572        0.08579237861911
C           -1.39001699577976        1.12513518119230       -0.50251979779032
O           -1.31128755234871        1.33207516037296       -1.70199081967514
C           -0.33512632041038        1.56403924337705        0.44535226219279
C            0.90266897263795        1.94412397990915       -0.04680820295927
C            2.15450003639005        0.26209345001050        0.60206366360292
O            1.41419676300654        0.05145337582534        1.68606608082446
C            0.16006793469321       -0.32149476317298        1.46089242505068
H            0.62160800621589       -1.99945989027877       -1.44680453644701
H           -1.37349502006170       -2.86073097732475       -0.11197063261533
H           -1.81423266152234       -2.03202404080727        1.39112101632905
H           -3.50212846027443       -1.53807887453626       -0.26981659232179
H           -2.28838827439973       -1.06362124162233       -1.46409550832248
H           -2.57768306461149        0.43642882465831        1.17160451332612
H           -3.48798380665658        0.85155922625262       -0.29464774314361
H           -0.68986526510628        1.94119140473314        1.39385946967215
H            1.08605142237896        1.85360526993551       -1.10514161697701
H            1.53261814950124        2.63399315180029        0.48537501822438
H            3.13143215528297        0.66444341473354        0.82677395275089
H           -0.42666654968782       -0.35230194508866        2.36624633989070
26
 energy: -41.809810348841 gnorm: 0.009977013183 xtb: 6.7.1 (edcfbbe)
O            2.78843590267566       -0.47966519642556       -1.54506314118872
C            1.96906224422045       -0.51558087410538       -0.62932665684373
C            0.75645627152967       -1.30927708607776       -0.62962285167593
C           -0.15366120582607       -1.19027030295611        0.36988374945494
C           -1.48302849640017       -1.88654533790182        0.37327921654320
C           -2.53618046209350       -1.07779008925010       -0.39834384691746
C           -2.56406044698204        0.38399610994895        0.07124857430927
C           -1.35551553512873        1.09233716542778       -0.50946862829786
O           -1.24022690133923        1.25579730910453       -1.70691338220374
C           -0.32937277714797        1.56776632848194        0.44845522067601
C            0.90706866560243        1.96602292383215       -0.03278458760884
C            2.14868015898175        0.26710401042624        0.59403075709748
O            1.41555013966000        0.04480880669671        1.68368843473651
C            0.15724732843373       -0.32079610731473        1.46240884386545
H            0.60170501197935       -1.98285132184589       -1.45540395711595
H           -1.38235602466755       -2.87055489081792       -0.08703520587905
H           -1.81915241349761       -2.01953535638174        1.40351476343760
H           -3.51420223486378       -1.53812406146007       -0.25499145230149
H           -2.30433288052261       -1.09118299213590       -1.46491055467474
H           -2.57146072020467        0.43518176338999        1.15635440217756
H           -3.46129479373240        0.86667923676032       -0.31633202202567
H           -0.70070255541759        1.93506135283768        1.39379826153448
H            1.09770221557413        1.88781253733764       -1.09039695882968
H            1.52684826585497        2.65171534695742        0.51699027960055
H            3.12982487348573        0.65690593662207        0.81652319224164
H           -0.42705763017432       -0.34943621115056        2.36963054988765
26
 energy: -41.810019536123 gnorm: 0.018082803212 xtb: 6.7.1 (edcfbbe)
O            2.76460307713985       -0.46085850215767       -1.56833099093737
C            1.95590435050343       -0.50665876433565       -0.64303610944732
C            0.74453811864423       -1.30330830208470       -0.63808969733235
C           -0.15794407247990       -1.18939631887156        0.36914632158916
C           -1.48805173361614       -1.88637811513300        0.38198995491026
C           -2.54318158017099       -1.08381692954269       -0.39299692938917
C           -2.55808691689340        0.38293889458900        0.05748744932127
C           -1.32824229174268        1.06654658382657       -0.51196434237430
O           -1.16379449592997        1.16664452947656       -1.71936619103553
C           -0.33125132823343        1.57493118093263        0.45902506070160
C            0.90803139190170        1.98235300243131       -0.00953794991248
C            2.14665659541759        0.26892087216851        0.58303374547170
O            1.41855420335054        0.04523440814349        1.67702874587092
C            0.15957399197891       -0.31918880120312        1.46058192533597
H            0.58735337949309       -1.97627326932052       -1.46389886779852
H           -1.38806323625547       -2.87420629972434       -0.06953703620942
H           -1.82059046271956       -2.00985307840814        1.41419140125100
H           -3.52242803289050       -1.53676257619233       -0.23431860185790
H           -2.31972041565199       -1.11405082055896       -1.46117380912605
H           -2.58382924085441        0.44745548915771        1.14232690945947
H           -3.43935876493017        0.87721281049687       -0.35304375583276
H           -0.71476841100351        1.93940117034606        1.40029115129742
H            1.10562081354025        1.91505689637447       -1.06724815037095
H            1.51528047057567        2.66822945081428        0.55590661067663
H            3.13210063700482        0.65234562094566        0.79924732707462
H           -0.42293004617845       -0.34694013217057        2.37149882866360
26
 energy: -41.810231741690 gnorm: 0.006226816056 xtb: 6.7.1 (edcfbbe)
O            2.75952462409984       -0.46854960142476       -1.57765175064943
C            1.95634023943550       -0.51059171627142       -0.64797018837799
C            0.74690794360882       -1.31157582895230       -0.63750785993122
C           -0.15563609144783       -1.18983895346040        0.37023960662998
C           -1.48705277009776       -1.88385841105759        0.38604543646228
C           -2.54440750689237       -1.08424246707581       -0.38948386347641
C           -2.56190220436167        0.38543771871035        0.04491050377831
C           -1.32472568344121        1.06545988943956       -0.50929999655798
O           -1.14611270169702        1.16106368661349       -1.70810904637695
C           -0.33803659164730        1.57628380380205        0.46508385824187
C            0.90431245133489        1.98403768784061        0.00151762431435
C            2.14920926532086        0.27011179234752        0.57416671516541
O            1.42562260430752        0.04775947746622        1.67128913895677
C            0.16792908295231       -0.31868152261874        1.45824700365974
H            0.59258724709241       -1.99266478877801       -1.45875266923329
H           -1.38832133760922       -2.87077353274585       -0.06615494059163
H           -1.81892761720046       -2.00630845745679        1.41803409845589
H           -3.52265561243240       -1.53547660790885       -0.21975091711874
H           -2.32755947271136       -1.12485065176459       -1.45860630418011
H           -2.60943624609305        0.46333685769525        1.13017080273955
H           -3.43362399801959        0.87751593157760       -0.39085714033084
H           -0.71470339247118        1.93506653416634        1.41087073998215
H            1.10193375455597        1.92517096075855       -1.05715072794882
H            1.50397334485999        2.66961554403022        0.57765242771097
H            3.13640468829272        0.65947365054822        0.78141559652998
H           -0.41566801973892       -0.34334199548100        2.37086485214569
26
 energy: -41.810310869712 gnorm: 0.004255303861 xtb: 6.7.1 (edcfbbe)
O            2.74686099575178       -0.46091432450732       -1.58825744509129
C            1.94899821784882       -0.50569825915058       -0.65392501754406
C            0.74353147507541       -1.31228621120676       -0.63771516366376
C           -0.15718991177244       -1.18937017826193        0.37296580633136
C           -1.48797361342436       -1.88271986249340        0.39133711096377
C           -2.54653441766402       -1.08515460478410       -0.38529419376937
C           -2.55990836763871        0.38784744902163        0.03724459437845
C           -1.31279957881205        1.05485177333611       -0.51300622382816
O           -1.11943686120589        1.12946246974156       -1.71136878751967
C           -0.33572487365280        1.57247613081100        0.46628225428313
C            0.90480958810467        1.99319961413459        0.00748419130822
C            2.14462385925601        0.27196828360261        0.57093034238637
O            1.42882847427028        0.04230217371521        1.67068216577115
C            0.17132068018578       -0.32189649952935        1.46079933764474
H            0.58775320338459       -1.99325089095447       -1.46076014007422
H           -1.38932221703524       -2.86963458826783       -0.06077958629800
H           -1.81895713826111       -2.00365305122356        1.42374069705365
H           -3.52500576504442       -1.53356256752176       -0.20991334596401
H           -2.33235325181845       -1.13236330909798       -1.45450372053074
H           -2.62115124947252        0.47954252843730        1.12155538445981
H           -3.42578895347580        0.87738161778465       -0.41404025575688
H           -0.71481591132976        1.92357021420509        1.41498840729787
H            1.10386637784640        1.94629881252511       -1.05167320407929
H            1.49992613449252        2.67468606065791        0.59351210262763
H            3.13256859921080        0.66384098016941        0.77397145269200
H           -0.41014949482006       -0.34734476114330        2.37495623692079
26
 energy: -41.810338418143 gnorm: 0.002332942996 xtb: 6.7.1 (edcfbbe)
O            2.74314865828267       -0.46082838358806       -1.59251583821049
C            1.94775835068644       -0.50604366647098       -0.65640139381381
C            0.74283887795301       -1.31342147389810       -0.63746048844386
C           -0.15724674323847       -1.18970303126827        0.37415184142715
C           -1.48785689725163       -1.88199446501937        0.39368118673636
C           -2.54676092908667       -1.08460140462829       -0.38346559463545
C           -2.55995003509943        0.39036516749201        0.03365059544551
C           -1.30912479850629        1.05145934149516       -0.51482002199527
O           -1.11133820857144        1.11657354323884       -1.71235938794897
C           -0.33610059271246        1.57106948570292        0.46793330493320
C            0.90392688667105        1.99631623218630        0.01264470651180
C            2.14446770600356        0.27274203549277        0.56785077844226
O            1.42977110179642        0.04408592289657        1.66784682269723
C            0.17280546015364       -0.32336482695052        1.46120718807310
H            0.58588221390043       -1.99424141357827       -1.46000417592687
H           -1.39002780918818       -2.86927191728251       -0.05849147512873
H           -1.81852292862575       -2.00254584391600        1.42647921109736
H           -3.52529714293159       -1.53207482862735       -0.20719597459403
H           -2.33263542288744       -1.13356789214907       -1.45239759092417
H           -2.62620533679414        0.48883694519767        1.11645947296551
H           -3.42460229303806        0.87602341540490       -0.42341100251080
H           -0.71837205251963        1.91895748839521        1.41694750140879
H            1.10560655860207        1.95248815551186       -1.04549222886856
H            1.49856198908817        2.67529351774093        0.60044091877807
H            3.13186739888439        0.66724624272918        0.76828276429411
H           -0.40661801157123       -0.35021934610772        2.37565188019007
26
 energy: -41.810347767680 gnorm: 0.001532718991 xtb: 6.7.1 (edcfbbe)
O            2.74128477583290       -0.45908895220866       -1.59493507426570
C            1.94741580101405       -0.50515612994039       -0.65762768375582
C            0.74278006784117       -1.31308720074418       -0.63723495563219
C           -0.15682053335506       -1.18924042229808        0.37496425352044
C           -1.48767783865809       -1.88063406840959        0.39515247225987
C           -2.54678823652204       -1.08352765518481       -0.38248648352581
C           -2.56151590686861        0.39287040778279        0.03129110614498
C           -1.30885067374860        1.05093341989740       -0.51555019483247
O           -1.10713025710583        1.10849621346226       -1.71268609784993
C           -0.33708876404058        1.56917059683181        0.46846318322697
C            0.90227966451697        1.99555960962620        0.01489069406303
C            2.14575865575695        0.27339853537419        0.56684868038738
O            1.43255705647627        0.04273113040373        1.66725019406039
C            0.17472107929755       -0.32424802685344        1.46230322424737
H            0.58465895380706       -1.99340599555801       -1.45943076133298
H           -1.39106103800463       -2.86830048378600       -0.05700430328529
H           -1.81814666400017       -2.00137897128237        1.42815142744190
H           -3.52516598063446       -1.53109793216768       -0.20612463380781
H           -2.33212957042026       -1.13365124743581       -1.45128276404877
H           -2.63036139980492        0.49471581169297        1.11297460043915
H           -3.42527026853898        0.87589559499407       -0.42964899589313
H           -0.72125552540979        1.91582450508950        1.41657711975992
H            1.10505181365672        1.95463413186548       -1.04248487955604
H            1.49817543671677        2.67179495433176        0.60335298045727
H            3.13267955444870        0.66970937628480        0.76605797056608
H           -0.40212420225368       -0.35333820176812        2.37743192121068
26
 energy: -41.810349499409 gnorm: 0.001084533417 xtb: 6.7.1 (edcfbbe)
O            2.74082661386542       -0.45943265752429       -1.59570319123611
C            1.94708544789138       -0.50563958415317       -0.65844718412100
C            0.74252473622002       -1.31349801068776       -0.63743857183844
C           -0.15653415815710       -1.19001403608306        0.37510445984292
C           -1.48815968043364       -1.88036883119646        0.39582278103956
C           -2.54697207247424       -1.08372296427794       -0.38244226797264
C           -2.56156724248056        0.39309657431757        0.03058787200030
C           -1.30764240298535        1.04935399795219       -0.51614114461337
O           -1.10412026081797        1.10399383391887       -1.71272552223787
C           -0.33741091070085        1.56962614908276        0.46914699902011
C            0.90219615060453        1.99691781022709        0.01708544258536
C            2.14598762030515        0.27339740290344        0.56535076127191
O            1.43312015661856        0.04332172828748        1.66631504018488
C            0.17507051835910       -0.32402255518758        1.46203982610153
H            0.58335779981912       -1.99307087660928       -1.45997485240145
H           -1.39247576283295       -2.86854018634257       -0.05538626553356
H           -1.81853720666529       -2.00009351961954        1.42896906456253
H           -3.52549272807205       -1.53106807001812       -0.20569976477094
H           -2.33209242490495       -1.13472506268048       -1.45126578310997
H           -2.63094120715553        0.49523209967007        1.11220631069501
H           -3.42428185415542        0.87666882510027       -0.43181778364090
H           -0.72472633198285        1.91623026483595        1.41591428132552
H            1.10666260128009        1.95631380264216       -1.04011656326365
H            1.49730710316598        2.67366636949637        0.60576305355682
H            3.13314427498380        0.66996767033767        0.76418065261689
H           -0.40035277929502       -0.35401117439180        2.37788534993603
26
 energy: -41.810350150355 gnorm: 0.000316439605 xtb: 6.7.1 (edcfbbe)
O            2.74130964968399       -0.45931806433992       -1.59512750636476
C            1.94722655457931       -0.50552762231751       -0.65798457528742
C            0.74248737891738       -1.31314367237068       -0.63758585037743
C           -0.15658525852456       -1.18985803176328        0.37491517180974
C           -1.48829120330461       -1.88025180285714        0.39555993819419
C           -2.54696896911264       -1.08368374367367       -0.38276845330628