26
 energy: -41.810350150432 gnorm: 0.000316255165 xtb: 6.7.1 (edcfbbe)
O            2.74130964968399       -0.45931806433992       -1.59512750636476
C            1.94722655457931       -0.50552762231751       -0.65798457528742
C            0.74248737891738       -1.31314367237068       -0.63758585037743
C           -0.15658525852456       -1.18985803176328        0.37491517180974
C           -1.48829120330461       -1.88025180285714        0.39555993819419
C           -2.54696896911264       -1.08368374367367       -0.38276845330628
C           -2.56165205847288        0.39281455503311        0.03099463421004
C           -1.30815909256361        1.04985170305908       -0.51563606944185
O           -1.10486395207312        1.10517819703026       -1.71213080201814
C           -0.33693228941280        1.56921770155907        0.46894846126707
C            0.90235517472106        1.99628711743213        0.01596188590366
C            2.14593011380199        0.27339904836569        0.56591203816282
O            1.43304626153358        0.04302246394605        1.66693423237628
C            0.17498581535663       -0.32427309380575        1.46238599734154
H            0.58348185990671       -1.99278096416327       -1.46011314761153
H           -1.39251958811714       -2.86845638776559       -0.05546988302689
H           -1.81861030550586       -1.99970135009352        1.42870480158650
H           -3.52547189883167       -1.53123302605783       -0.20642758679095
H           -2.33200839200038       -1.13415461139116       -1.45153833952664
H           -2.63079467302676        0.49410071250890        1.11276957369368
H           -3.42439447252583        0.87674161546988       -0.43089820620573
H           -0.72412594228674        1.91607655524205        1.41555339946837
H            1.10625937571278        1.95583339293283       -1.04147175927343
H            1.49774486430069        2.67324554389242        0.60455528765643
H            3.13281636758150        0.67049640554027        0.76484829958115
H           -0.40028932033764       -0.35430364141259        2.37832145797906
