          26
 Energy =    -41.88650944 a.u.  #Cluster:    1
O           2.77221872      0.54199330      1.51441484
C           1.92395749      0.51749845      0.64353600
C           0.72935408      1.35815520      0.64182533
C          -0.21940609      1.19100665     -0.29095351
C          -1.53753276      1.89010066     -0.28313839
C          -2.58882449      1.02871673      0.43667723
C          -2.64052142     -0.40560766     -0.11129328
C          -1.39387209     -1.14898819      0.31692036
O          -1.27562037     -1.61920406      1.42221255
C          -0.29838489     -1.24413333     -0.73210780
C           1.06401206     -1.67531771     -0.17403352
C           1.97626134     -0.47075074     -0.51939685
O           1.39205766      0.09133905     -1.67636079
C           0.02305078      0.15158885     -1.35662913
H           0.63779335      2.08731844      1.43367057
H          -1.45158763      2.84565977      0.23512672
H          -1.86364572      2.07382185     -1.30855643
H          -3.56723959      1.49484802      0.31666687
H          -2.35770969      0.98664276      1.50262509
H          -2.74229352     -0.39370530     -1.19562507
H          -3.50137487     -0.91149544      0.32965716
H          -0.64111363     -1.92745487     -1.51343453
H           1.01447551     -1.85217651      0.90040086
H           1.43173145     -2.57404296     -0.66466606
H           3.00646142     -0.75126617     -0.74140721
H          -0.52376326      0.36373433     -2.27583937
          26
 Energy =    -41.88394583 a.u.  #Cluster:    2
O           2.76799893      0.37984894      1.52681759
C           1.90891725      0.43367352      0.66715517
C           0.72813318      1.29039778      0.74946188
C          -0.23370192      1.21151430     -0.18205439
C          -1.56191149      1.88601328     -0.12245858
C          -2.67142465      0.90570305     -0.52428218
C          -2.63487646     -0.36506372      0.32547736
C          -1.29748339     -1.05554538      0.48789741
O          -1.00863140     -1.57503767      1.54090860
C          -0.36793092     -1.15475308     -0.72259210
C           1.01802672     -1.69029525     -0.33426906
C           1.93758142     -0.46728240     -0.56711464
O           1.34508661      0.18739794     -1.66828620
C          -0.01480707      0.24864991     -1.31821147
H           0.64845010      1.93739473      1.61095953
H          -1.73584217      2.27113892      0.88336574
H          -1.56576821      2.73302661     -0.81436360
H          -2.58798402      0.65363544     -1.58096583
H          -3.63943070      1.38748135     -0.38101279
H          -3.31374260     -1.10743805     -0.10541298
H          -2.99307406     -0.15206000      1.33563613
H          -0.85122912     -1.78266705     -1.47411201
H           1.04151488     -2.02744013      0.70124056
H           1.32576279     -2.50473799     -0.98718407
H           2.96382060     -0.73708945     -0.81955883
H          -0.56441875      0.51390853     -2.21978601
          26
 Energy =    -41.88051560 a.u.  #Cluster:    3
O           3.02214546      0.84609263      1.30746558
C           2.07712454      0.70274454      0.55699213
C           0.88810439      1.54970028      0.55185907
C          -0.13531543      1.28348950     -0.27335154
C          -1.44920210      1.98348970     -0.23194339
C          -2.57827163      0.95063238     -0.10656735
C          -2.23471562     -0.14547109      0.91232380
C          -1.56606645     -1.35985682      0.31078211
O          -1.98172471     -2.47298545      0.53949541
C          -0.34191144     -1.20646723     -0.57426320
C           0.96360176     -1.48815088      0.20345120
C           1.95781882     -0.46604306     -0.41805065
O           1.35112413     -0.02615188     -1.61449565
C          -0.00298829      0.14833969     -1.24950670
H           0.86090518      2.36990954      1.25476207
H          -1.47181501      2.67028477      0.61503018
H          -1.58763509      2.56520480     -1.14633721
H          -2.78811465      0.49185593     -1.07366931
H          -3.48417457      1.46387958      0.21556120
H          -3.14022327     -0.50517178      1.40528279
H          -1.57493394      0.26066830      1.68323817
H          -0.43122124     -1.95478943     -1.36846446
H           0.84743868     -1.31585659      1.27432496
H           1.30306876     -2.51024780      0.05631600
H           2.93528038     -0.88973856     -0.65077426
H          -0.57172647      0.32826989     -2.16268069
          26
 Energy =    -41.87774370 a.u.  #Cluster:    4
O           2.90326862      0.98860007      1.36200034
C           2.01418735      0.75907822      0.56554115
C           0.79170071      1.54785750      0.44331609
C          -0.17785528      1.16572483     -0.40278101
C          -1.57042454      1.69833388     -0.37437512
C          -2.36927947      1.03931862      0.77811943
C          -1.77740418     -0.29665646      1.26459668
C          -1.59957611     -1.27216006      0.12487343
O          -2.50610527     -1.97650105     -0.25523421
C          -0.25843485     -1.31928606     -0.58352215
C           1.01110278     -1.51871441      0.26164941
C           2.00280542     -0.47374915     -0.33573351
O           1.46238905     -0.12284297     -1.59234210
C           0.08896044      0.00991139     -1.32608253
H           0.67554712      2.39067054      1.10901524
H          -1.55884682      2.77841954     -0.22791435
H          -2.06034219      1.48492638     -1.32507117
H          -3.39371168      0.87292007      0.44549326
H          -2.39662654      1.71079253      1.63642103
H          -2.48237795     -0.73616564      1.97300653
H          -0.83336321     -0.11182920      1.77377175
H          -0.32164503     -2.10864723     -1.33819728
H           0.85319941     -1.34051652      1.32447648
H           1.40202672     -2.52654268      0.13994354
H           3.01137476     -0.86282719     -0.47943377
H          -0.43666977      0.11651669     -2.27614858
