 Entering Gaussian System, Link 0=g16
 Initial command:
 /root//g16/l1.exe "/root/g16/scratch/Gau-299345.inp" -scrdir="/root/g16/scratch/"
 Entering Link 1 = /root//g16/l1.exe PID=    299347.
  
 Copyright (c) 1988,1990,1992,1993,1995,1998,2003,2009,2016,
            Gaussian, Inc.  All Rights Reserved.
  
 This is part of the Gaussian(R) 16 program.  It is based on
 the Gaussian(R) 09 system (copyright 2009, Gaussian, Inc.),
 the Gaussian(R) 03 system (copyright 2003, Gaussian, Inc.),
 the Gaussian(R) 98 system (copyright 1998, Gaussian, Inc.),
 the Gaussian(R) 94 system (copyright 1995, Gaussian, Inc.),
 the Gaussian 92(TM) system (copyright 1992, Gaussian, Inc.),
 the Gaussian 90(TM) system (copyright 1990, Gaussian, Inc.),
 the Gaussian 88(TM) system (copyright 1988, Gaussian, Inc.),
 the Gaussian 86(TM) system (copyright 1986, Carnegie Mellon
 University), and the Gaussian 82(TM) system (copyright 1983,
 Carnegie Mellon University). Gaussian is a federally registered
 trademark of Gaussian, Inc.
  
 This software contains proprietary and confidential information,
 including trade secrets, belonging to Gaussian, Inc.
  
 This software is provided under written license and may be
 used, copied, transmitted, or stored only in accord with that
 written license.
  
 The following legend is applicable only to US Government
 contracts under FAR:
  
                    RESTRICTED RIGHTS LEGEND
  
 Use, reproduction and disclosure by the US Government is
 subject to restrictions as set forth in subparagraphs (a)
 and (c) of the Commercial Computer Software - Restricted
 Rights clause in FAR 52.227-19.
  
 Gaussian, Inc.
 340 Quinnipiac St., Bldg. 40, Wallingford CT 06492
  
  
 ---------------------------------------------------------------
 Warning -- This program may not be used in any manner that
 competes with the business of Gaussian, Inc. or will provide
 assistance to any competitor of Gaussian, Inc.  The licensee
 of this program is prohibited from giving any competitor of
 Gaussian, Inc. access to this program.  By using this program,
 the user acknowledges that Gaussian, Inc. is engaged in the
 business of creating and licensing software in the field of
 computational chemistry and represents and warrants to the
 licensee that it is not a competitor of Gaussian, Inc. and that
 it will not use this program in any manner prohibited above.
 ---------------------------------------------------------------
  

 Cite this work as:
 Gaussian 16, Revision A.03,
 M. J. Frisch, G. W. Trucks, H. B. Schlegel, G. E. Scuseria, 
 M. A. Robb, J. R. Cheeseman, G. Scalmani, V. Barone, 
 G. A. Petersson, H. Nakatsuji, X. Li, M. Caricato, A. V. Marenich, 
 J. Bloino, B. G. Janesko, R. Gomperts, B. Mennucci, H. P. Hratchian, 
 J. V. Ortiz, A. F. Izmaylov, J. L. Sonnenberg, D. Williams-Young, 
 F. Ding, F. Lipparini, F. Egidi, J. Goings, B. Peng, A. Petrone, 
 T. Henderson, D. Ranasinghe, V. G. Zakrzewski, J. Gao, N. Rega, 
 G. Zheng, W. Liang, M. Hada, M. Ehara, K. Toyota, R. Fukuda, 
 J. Hasegawa, M. Ishida, T. Nakajima, Y. Honda, O. Kitao, H. Nakai, 
 T. Vreven, K. Throssell, J. A. Montgomery, Jr., J. E. Peralta, 
 F. Ogliaro, M. J. Bearpark, J. J. Heyd, E. N. Brothers, K. N. Kudin, 
 V. N. Staroverov, T. A. Keith, R. Kobayashi, J. Normand, 
 K. Raghavachari, A. P. Rendell, J. C. Burant, S. S. Iyengar, 
 J. Tomasi, M. Cossi, J. M. Millam, M. Klene, C. Adamo, R. Cammi, 
 J. W. Ochterski, R. L. Martin, K. Morokuma, O. Farkas, 
 J. B. Foresman, and D. J. Fox, Gaussian, Inc., Wallingford CT, 2016.
 
 ******************************************
 Gaussian 16:  ES64L-G16RevA.03 25-Dec-2016
                14-Jan-2026 
 ******************************************
 %chk=conf_001.chk
 %nprocshared=16
 Will use up to   16 processors via shared memory.
 %mem=32GB
 ---------------------------------------------------------
 #p B3LYP/def2SVP em=GD3BJ Opt SCF=(XQC,MaxCycle=256) Freq
 ---------------------------------------------------------
 1/18=20,19=15,26=3,38=1/1,3;
 2/9=110,12=2,17=6,18=5,40=1/2;
 3/5=43,7=101,11=2,25=1,30=1,71=1,74=-5,124=41/1,2,3;
 4//1;
 5/5=2,7=256,8=3,13=1,38=5/2,8;
 6/7=2,8=2,9=2,10=2,28=1/1;
 7//1,2,3,16;
 1/18=20,19=15,26=3/3(2);
 2/9=110/2;
 99//99;
 2/9=110/2;
 3/5=43,7=101,11=2,25=1,30=1,71=1,74=-5,124=41/1,2,3;
 4/5=5,16=3,69=1/1;
 5/5=2,7=256,8=3,13=1,38=5/2,8;
 7//1,2,3,16;
 1/18=20,19=15,26=3/3(-5);
 2/9=110/2;
 6/7=2,8=2,9=2,10=2,19=2,28=1/1;
 99/9=1/99;
 Leave Link    1 at Wed Jan 14 09:38:43 2026, MaxMem=  4294967296 cpu:               0.3 elap:               0.0
 (Enter /root//g16/l101.exe)
 ------------
 -41.88394519
 ------------
 Symbolic Z-matrix:
 Charge =  0 Multiplicity = 1
 O                     2.76454   0.37881   1.52852 
 C                     1.90665   0.43307   0.6677 
 C                     0.72649   1.29078   0.74836 
 C                    -0.23424   1.21223  -0.18433 
 C                    -1.56221   1.88731  -0.12758 
 C                    -2.67131   0.90426  -0.52418 
 C                    -2.6324   -0.36258   0.33085 
 C                    -1.29549  -1.05488   0.48987 
 O                    -1.00542  -1.57561   1.542 
 C                    -0.368    -1.15475  -0.72235 
 C                     1.01821  -1.69094  -0.33592 
 C                     1.93725  -0.46741  -0.56699 
 O                     1.34539   0.18709  -1.66865 
 C                    -0.01476   0.24816  -1.31922 
 H                     0.64665   1.93871   1.6091 
 H                    -1.73617   2.27772   0.87611 
 H                    -1.56632   2.73027  -0.82439 
 H                    -2.58849   0.64786  -1.57993 
 H                    -3.63962   1.38588  -0.38208 
 H                    -3.31469  -1.10589  -0.09299 
 H                    -2.98539  -0.1445    1.34181 
 H                    -0.85317  -1.78276  -1.47265 
 H                     1.04255  -2.03026   0.69887 
 H                     1.3259   -2.50385  -0.99074 
 H                     2.96395  -0.73651  -0.81828 
 H                    -0.56403   0.51237  -2.22133 
 
 ITRead=  0  0  0  0  0  0  0  0  0  0  0  0  0  0  0  0  0  0  0  0
 ITRead=  0  0  0  0  0  0
 MicOpt= -1 -1 -1 -1 -1 -1 -1 -1 -1 -1 -1 -1 -1 -1 -1 -1 -1 -1 -1 -1
 MicOpt= -1 -1 -1 -1 -1 -1
 NAtoms=     26 NQM=       26 NQMF=       0 NMMI=      0 NMMIF=      0
                NMic=       0 NMicF=      0.
                    Isotopes and Nuclear Properties:
 (Nuclear quadrupole moments (NQMom) in fm**2, nuclear magnetic moments (NMagM)
  in nuclear magnetons)

  Atom         1           2           3           4           5           6           7           8           9          10
 IAtWgt=          16          12          12          12          12          12          12          12          16          12
 AtmWgt=  15.9949146  12.0000000  12.0000000  12.0000000  12.0000000  12.0000000  12.0000000  12.0000000  15.9949146  12.0000000
 NucSpn=           0           0           0           0           0           0           0           0           0           0
 AtZEff=  -0.0000000  -0.0000000  -0.0000000  -0.0000000  -0.0000000  -0.0000000  -0.0000000  -0.0000000  -0.0000000  -0.0000000
 NQMom=    0.0000000   0.0000000   0.0000000   0.0000000   0.0000000   0.0000000   0.0000000   0.0000000   0.0000000   0.0000000
 NMagM=    0.0000000   0.0000000   0.0000000   0.0000000   0.0000000   0.0000000   0.0000000   0.0000000   0.0000000   0.0000000
 AtZNuc=   8.0000000   6.0000000   6.0000000   6.0000000   6.0000000   6.0000000   6.0000000   6.0000000   8.0000000   6.0000000

  Atom        11          12          13          14          15          16          17          18          19          20
 IAtWgt=          12          12          16          12           1           1           1           1           1           1
 AtmWgt=  12.0000000  12.0000000  15.9949146  12.0000000   1.0078250   1.0078250   1.0078250   1.0078250   1.0078250   1.0078250
 NucSpn=           0           0           0           0           1           1           1           1           1           1
 AtZEff=  -0.0000000  -0.0000000  -0.0000000  -0.0000000  -0.0000000  -0.0000000  -0.0000000  -0.0000000  -0.0000000  -0.0000000
 NQMom=    0.0000000   0.0000000   0.0000000   0.0000000   0.0000000   0.0000000   0.0000000   0.0000000   0.0000000   0.0000000
 NMagM=    0.0000000   0.0000000   0.0000000   0.0000000   2.7928460   2.7928460   2.7928460   2.7928460   2.7928460   2.7928460
 AtZNuc=   6.0000000   6.0000000   8.0000000   6.0000000   1.0000000   1.0000000   1.0000000   1.0000000   1.0000000   1.0000000

  Atom        21          22          23          24          25          26
 IAtWgt=           1           1           1           1           1           1
 AtmWgt=   1.0078250   1.0078250   1.0078250   1.0078250   1.0078250   1.0078250
 NucSpn=           1           1           1           1           1           1
 AtZEff=  -0.0000000  -0.0000000  -0.0000000  -0.0000000  -0.0000000  -0.0000000
 NQMom=    0.0000000   0.0000000   0.0000000   0.0000000   0.0000000   0.0000000
 NMagM=    2.7928460   2.7928460   2.7928460   2.7928460   2.7928460   2.7928460
 AtZNuc=   1.0000000   1.0000000   1.0000000   1.0000000   1.0000000   1.0000000
 Leave Link  101 at Wed Jan 14 09:38:43 2026, MaxMem=  4294967296 cpu:               1.9 elap:               0.1
 (Enter /root//g16/l103.exe)

 GradGradGradGradGradGradGradGradGradGradGradGradGradGradGradGradGradGrad
 Berny optimization.
 Initialization pass.
                           ----------------------------
                           !    Initial Parameters    !
                           ! (Angstroms and Degrees)  !
 --------------------------                            --------------------------
 ! Name  Definition              Value          Derivative Info.                !
 --------------------------------------------------------------------------------
 ! R1    R(1,2)                  1.2165         estimate D2E/DX2                !
 ! R2    R(2,3)                  1.4611         estimate D2E/DX2                !
 ! R3    R(2,12)                 1.5285         estimate D2E/DX2                !
 ! R4    R(3,4)                  1.3413         estimate D2E/DX2                !
 ! R5    R(3,15)                 1.0803         estimate D2E/DX2                !
 ! R6    R(4,5)                  1.4908         estimate D2E/DX2                !
 ! R7    R(4,14)                 1.5052         estimate D2E/DX2                !
 ! R8    R(5,6)                  1.5342         estimate D2E/DX2                !
 ! R9    R(5,16)                 1.0909         estimate D2E/DX2                !
 ! R10   R(5,17)                 1.0937         estimate D2E/DX2                !
 ! R11   R(6,7)                  1.5289         estimate D2E/DX2                !
 ! R12   R(6,18)                 1.0896         estimate D2E/DX2                !
 ! R13   R(6,19)                 1.0908         estimate D2E/DX2                !
 ! R14   R(7,8)                  1.5139         estimate D2E/DX2                !
 ! R15   R(7,20)                 1.0944         estimate D2E/DX2                !
 ! R16   R(7,21)                 1.0928         estimate D2E/DX2                !
 ! R17   R(8,9)                  1.2092         estimate D2E/DX2                !
 ! R18   R(8,10)                 1.5296         estimate D2E/DX2                !
 ! R19   R(10,11)                1.5357         estimate D2E/DX2                !
 ! R20   R(10,14)                1.565          estimate D2E/DX2                !
 ! R21   R(10,22)                1.0921         estimate D2E/DX2                !
 ! R22   R(11,12)                1.5476         estimate D2E/DX2                !
 ! R23   R(11,23)                1.0893         estimate D2E/DX2                !
 ! R24   R(11,24)                1.0883         estimate D2E/DX2                !
 ! R25   R(12,13)                1.4115         estimate D2E/DX2                !
 ! R26   R(12,25)                1.0907         estimate D2E/DX2                !
 ! R27   R(13,14)                1.4056         estimate D2E/DX2                !
 ! R28   R(14,26)                1.0887         estimate D2E/DX2                !
 ! A1    A(1,2,3)              123.8284         estimate D2E/DX2                !
 ! A2    A(1,2,12)             122.0866         estimate D2E/DX2                !
 ! A3    A(3,2,12)             113.9906         estimate D2E/DX2                !
 ! A4    A(2,3,4)              120.3822         estimate D2E/DX2                !
 ! A5    A(2,3,15)             117.113          estimate D2E/DX2                !
 ! A6    A(4,3,15)             122.4265         estimate D2E/DX2                !
 ! A7    A(3,4,5)              125.8067         estimate D2E/DX2                !
 ! A8    A(3,4,14)             117.2167         estimate D2E/DX2                !
 ! A9    A(5,4,14)             116.656          estimate D2E/DX2                !
 ! A10   A(4,5,6)              110.1186         estimate D2E/DX2                !
 ! A11   A(4,5,16)             109.8238         estimate D2E/DX2                !
 ! A12   A(4,5,17)             109.1545         estimate D2E/DX2                !
 ! A13   A(6,5,16)             110.6016         estimate D2E/DX2                !
 ! A14   A(6,5,17)             109.0537         estimate D2E/DX2                !
 ! A15   A(16,5,17)            108.0441         estimate D2E/DX2                !
 ! A16   A(5,6,7)              111.5906         estimate D2E/DX2                !
 ! A17   A(5,6,18)             110.2615         estimate D2E/DX2                !
 ! A18   A(5,6,19)             108.975          estimate D2E/DX2                !
 ! A19   A(7,6,18)             110.1797         estimate D2E/DX2                !
 ! A20   A(7,6,19)             108.3975         estimate D2E/DX2                !
 ! A21   A(18,6,19)            107.3134         estimate D2E/DX2                !
 ! A22   A(6,7,8)              117.3957         estimate D2E/DX2                !
 ! A23   A(6,7,20)             109.2895         estimate D2E/DX2                !
 ! A24   A(6,7,21)             110.1078         estimate D2E/DX2                !
 ! A25   A(8,7,20)             106.2992         estimate D2E/DX2                !
 ! A26   A(8,7,21)             106.2204         estimate D2E/DX2                !
 ! A27   A(20,7,21)            107.0045         estimate D2E/DX2                !
 ! A28   A(7,8,9)              120.0101         estimate D2E/DX2                !
 ! A29   A(7,8,10)             118.8215         estimate D2E/DX2                !
 ! A30   A(9,8,10)             121.0617         estimate D2E/DX2                !
 ! A31   A(8,10,11)            111.7594         estimate D2E/DX2                !
 ! A32   A(8,10,14)            112.3699         estimate D2E/DX2                !
 ! A33   A(8,10,22)            108.2182         estimate D2E/DX2                !
 ! A34   A(11,10,14)           101.842          estimate D2E/DX2                !
 ! A35   A(11,10,22)           111.9068         estimate D2E/DX2                !
 ! A36   A(14,10,22)           110.7159         estimate D2E/DX2                !
 ! A37   A(10,11,12)           102.8521         estimate D2E/DX2                !
 ! A38   A(10,11,23)           111.5906         estimate D2E/DX2                !
 ! A39   A(10,11,24)           111.3833         estimate D2E/DX2                !
 ! A40   A(12,11,23)           112.0157         estimate D2E/DX2                !
 ! A41   A(12,11,24)           109.4401         estimate D2E/DX2                !
 ! A42   A(23,11,24)           109.4274         estimate D2E/DX2                !
 ! A43   A(2,12,11)            109.4674         estimate D2E/DX2                !
 ! A44   A(2,12,13)            110.42           estimate D2E/DX2                !
 ! A45   A(2,12,25)            110.5053         estimate D2E/DX2                !
 ! A46   A(11,12,13)           103.5399         estimate D2E/DX2                !
 ! A47   A(11,12,25)           113.4747         estimate D2E/DX2                !
 ! A48   A(13,12,25)           109.2253         estimate D2E/DX2                !
 ! A49   A(12,13,14)           103.4068         estimate D2E/DX2                !
 ! A50   A(4,14,10)            104.696          estimate D2E/DX2                !
 ! A51   A(4,14,13)            110.8769         estimate D2E/DX2                !
 ! A52   A(4,14,26)            113.3126         estimate D2E/DX2                !
 ! A53   A(10,14,13)           105.9186         estimate D2E/DX2                !
 ! A54   A(10,14,26)           114.815          estimate D2E/DX2                !
 ! A55   A(13,14,26)           107.0223         estimate D2E/DX2                !
 ! D1    D(1,2,3,4)           -174.2145         estimate D2E/DX2                !
 ! D2    D(1,2,3,15)             2.6462         estimate D2E/DX2                !
 ! D3    D(12,2,3,4)             2.3108         estimate D2E/DX2                !
 ! D4    D(12,2,3,15)          179.1715         estimate D2E/DX2                !
 ! D5    D(1,2,12,11)           97.2511         estimate D2E/DX2                !
 ! D6    D(1,2,12,13)         -149.3852         estimate D2E/DX2                !
 ! D7    D(1,2,12,25)          -28.4301         estimate D2E/DX2                !
 ! D8    D(3,2,12,11)          -79.3421         estimate D2E/DX2                !
 ! D9    D(3,2,12,13)           34.0216         estimate D2E/DX2                !
 ! D10   D(3,2,12,25)          154.9767         estimate D2E/DX2                !
 ! D11   D(2,3,4,5)            171.2612         estimate D2E/DX2                !
 ! D12   D(2,3,4,14)            -1.9928         estimate D2E/DX2                !
 ! D13   D(15,3,4,5)            -5.4281         estimate D2E/DX2                !
 ! D14   D(15,3,4,14)         -178.6821         estimate D2E/DX2                !
 ! D15   D(3,4,5,6)           -134.5098         estimate D2E/DX2                !
 ! D16   D(3,4,5,16)           -12.4779         estimate D2E/DX2                !
 ! D17   D(3,4,5,17)           105.8017         estimate D2E/DX2                !
 ! D18   D(14,4,5,6)            38.7778         estimate D2E/DX2                !
 ! D19   D(14,4,5,16)          160.8098         estimate D2E/DX2                !
 ! D20   D(14,4,5,17)          -80.9106         estimate D2E/DX2                !
 ! D21   D(3,4,14,10)           78.8012         estimate D2E/DX2                !
 ! D22   D(3,4,14,13)          -34.9961         estimate D2E/DX2                !
 ! D23   D(3,4,14,26)         -155.3622         estimate D2E/DX2                !
 ! D24   D(5,4,14,10)          -95.0797         estimate D2E/DX2                !
 ! D25   D(5,4,14,13)          151.123          estimate D2E/DX2                !
 ! D26   D(5,4,14,26)           30.7569         estimate D2E/DX2                !
 ! D27   D(4,5,6,7)             54.8089         estimate D2E/DX2                !
 ! D28   D(4,5,6,18)           -67.9804         estimate D2E/DX2                !
 ! D29   D(4,5,6,19)           174.4785         estimate D2E/DX2                !
 ! D30   D(16,5,6,7)           -66.7612         estimate D2E/DX2                !
 ! D31   D(16,5,6,18)          170.4494         estimate D2E/DX2                !
 ! D32   D(16,5,6,19)           52.9084         estimate D2E/DX2                !
 ! D33   D(17,5,6,7)           174.5585         estimate D2E/DX2                !
 ! D34   D(17,5,6,18)           51.7691         estimate D2E/DX2                !
 ! D35   D(17,5,6,19)          -65.7719         estimate D2E/DX2                !
 ! D36   D(5,6,7,8)            -48.9773         estimate D2E/DX2                !
 ! D37   D(5,6,7,20)          -170.0609         estimate D2E/DX2                !
 ! D38   D(5,6,7,21)            72.6757         estimate D2E/DX2                !
 ! D39   D(18,6,7,8)            73.8588         estimate D2E/DX2                !
 ! D40   D(18,6,7,20)          -47.2248         estimate D2E/DX2                !
 ! D41   D(18,6,7,21)         -164.4883         estimate D2E/DX2                !
 ! D42   D(19,6,7,8)          -168.9874         estimate D2E/DX2                !
 ! D43   D(19,6,7,20)           69.9291         estimate D2E/DX2                !
 ! D44   D(19,6,7,21)          -47.3344         estimate D2E/DX2                !
 ! D45   D(6,7,8,9)            143.6695         estimate D2E/DX2                !
 ! D46   D(6,7,8,10)           -40.0442         estimate D2E/DX2                !
 ! D47   D(20,7,8,9)           -93.7021         estimate D2E/DX2                !
 ! D48   D(20,7,8,10)           82.5842         estimate D2E/DX2                !
 ! D49   D(21,7,8,9)            20.0255         estimate D2E/DX2                !
 ! D50   D(21,7,8,10)         -163.6883         estimate D2E/DX2                !
 ! D51   D(7,8,10,11)          171.3777         estimate D2E/DX2                !
 ! D52   D(7,8,10,14)           57.5986         estimate D2E/DX2                !
 ! D53   D(7,8,10,22)          -64.9602         estimate D2E/DX2                !
 ! D54   D(9,8,10,11)          -12.3765         estimate D2E/DX2                !
 ! D55   D(9,8,10,14)         -126.1556         estimate D2E/DX2                !
 ! D56   D(9,8,10,22)          111.2856         estimate D2E/DX2                !
 ! D57   D(8,10,11,12)        -112.3511         estimate D2E/DX2                !
 ! D58   D(8,10,11,23)           7.9002         estimate D2E/DX2                !
 ! D59   D(8,10,11,24)         130.5232         estimate D2E/DX2                !
 ! D60   D(14,10,11,12)          7.8068         estimate D2E/DX2                !
 ! D61   D(14,10,11,23)        128.0581         estimate D2E/DX2                !
 ! D62   D(14,10,11,24)       -109.3189         estimate D2E/DX2                !
 ! D63   D(22,10,11,12)        126.0929         estimate D2E/DX2                !
 ! D64   D(22,10,11,23)       -113.6558         estimate D2E/DX2                !
 ! D65   D(22,10,11,24)          8.9672         estimate D2E/DX2                !
 ! D66   D(8,10,14,4)           22.8448         estimate D2E/DX2                !
 ! D67   D(8,10,14,13)         140.097          estimate D2E/DX2                !
 ! D68   D(8,10,14,26)        -102.0464         estimate D2E/DX2                !
 ! D69   D(11,10,14,4)         -96.8836         estimate D2E/DX2                !
 ! D70   D(11,10,14,13)         20.3686         estimate D2E/DX2                !
 ! D71   D(11,10,14,26)        138.2252         estimate D2E/DX2                !
 ! D72   D(22,10,14,4)         143.9822         estimate D2E/DX2                !
 ! D73   D(22,10,14,13)        -98.7657         estimate D2E/DX2                !
 ! D74   D(22,10,14,26)         19.0909         estimate D2E/DX2                !
 ! D75   D(10,11,12,2)          84.0912         estimate D2E/DX2                !
 ! D76   D(10,11,12,13)        -33.668          estimate D2E/DX2                !
 ! D77   D(10,11,12,25)       -151.9519         estimate D2E/DX2                !
 ! D78   D(23,11,12,2)         -35.8668         estimate D2E/DX2                !
 ! D79   D(23,11,12,13)       -153.6261         estimate D2E/DX2                !
 ! D80   D(23,11,12,25)         88.0901         estimate D2E/DX2                !
 ! D81   D(24,11,12,2)        -157.4121         estimate D2E/DX2                !
 ! D82   D(24,11,12,13)         84.8286         estimate D2E/DX2                !
 ! D83   D(24,11,12,25)        -33.4553         estimate D2E/DX2                !
 ! D84   D(2,12,13,14)         -69.0016         estimate D2E/DX2                !
 ! D85   D(11,12,13,14)         48.0915         estimate D2E/DX2                !
 ! D86   D(25,12,13,14)        169.2837         estimate D2E/DX2                !
 ! D87   D(12,13,14,4)          69.8583         estimate D2E/DX2                !
 ! D88   D(12,13,14,10)        -43.1661         estimate D2E/DX2                !
 ! D89   D(12,13,14,26)       -166.1047         estimate D2E/DX2                !
 --------------------------------------------------------------------------------
 Trust Radius=3.00D-01 FncErr=1.00D-07 GrdErr=1.00D-06 EigMax=2.50D+02 EigMin=1.00D-04
 Number of steps in this run=    156 maximum allowed number of steps=    156.
 GradGradGradGradGradGradGradGradGradGradGradGradGradGradGradGradGradGrad

 Leave Link  103 at Wed Jan 14 09:38:43 2026, MaxMem=  4294967296 cpu:               0.1 elap:               0.0
 (Enter /root//g16/l202.exe)
                          Input orientation:                          
 ---------------------------------------------------------------------
 Center     Atomic      Atomic             Coordinates (Angstroms)
 Number     Number       Type             X           Y           Z
 ---------------------------------------------------------------------
      1          8           0        2.764539    0.378806    1.528521
      2          6           0        1.906653    0.433074    0.667699
      3          6           0        0.726490    1.290781    0.748359
      4          6           0       -0.234243    1.212230   -0.184329
      5          6           0       -1.562210    1.887308   -0.127582
      6          6           0       -2.671311    0.904257   -0.524177
      7          6           0       -2.632404   -0.362584    0.330848
      8          6           0       -1.295492   -1.054875    0.489874
      9          8           0       -1.005416   -1.575609    1.542003
     10          6           0       -0.367999   -1.154751   -0.722349
     11          6           0        1.018211   -1.690936   -0.335917
     12          6           0        1.937248   -0.467412   -0.566992
     13          8           0        1.345391    0.187086   -1.668651
     14          6           0       -0.014759    0.248157   -1.319219
     15          1           0        0.646645    1.938710    1.609096
     16          1           0       -1.736171    2.277721    0.876113
     17          1           0       -1.566316    2.730272   -0.824393
     18          1           0       -2.588494    0.647864   -1.579925
     19          1           0       -3.639620    1.385883   -0.382083
     20          1           0       -3.314692   -1.105889   -0.092986
     21          1           0       -2.985392   -0.144498    1.341811
     22          1           0       -0.853166   -1.782763   -1.472650
     23          1           0        1.042545   -2.030257    0.698867
     24          1           0        1.325898   -2.503847   -0.990744
     25          1           0        2.963949   -0.736506   -0.818282
     26          1           0       -0.564035    0.512369   -2.221334
 ---------------------------------------------------------------------
                    Distance matrix (angstroms):
                    1          2          3          4          5
     1  O    0.000000
     2  C    1.216522   0.000000
     3  C    2.365163   1.461148   0.000000
     4  C    3.552625   2.432380   1.341300   0.000000
     5  C    4.872269   3.844512   2.522154   1.490787   0.000000
     6  C    5.834220   4.753981   3.648808   2.479847   1.534204
     7  C    5.577730   4.620561   3.766976   2.914897   2.533277
     8  C    4.429230   3.535442   3.107625   2.592405   3.018084
     9  O    4.246466   3.644086   3.441739   3.368527   3.884499
    10  C    4.151024   3.102815   3.056389   2.431040   3.321749
    11  C    3.287798   2.511572   3.186125   3.165437   4.416537
    12  C    2.406589   1.528488   2.507455   2.771823   4.240754
    13  O    3.503234   2.415380   2.728208   2.397785   3.704023
    14  C    3.981355   2.770174   2.431335   1.505185   2.549787
    15  H    2.631590   2.177335   1.080303   2.126055   2.810290
    16  H    4.928276   4.088560   2.656138   2.124993   1.090912
    17  H    5.460943   4.423231   3.130917   2.118620   1.093686
    18  H    6.195950   5.030338   4.101630   2.794405   2.167668
    19  H    6.758540   5.724599   4.511082   3.415532   2.152170
    20  H    6.464569   5.496317   4.773159   3.856318   3.468663
    21  H    5.776713   4.971933   4.023715   3.426169   2.883193
    22  H    5.173702   4.136137   4.107903   3.318557   3.972577
    23  H    3.075252   2.610681   3.336411   3.594989   4.776514
    24  H    4.089752   3.422458   4.216986   4.110179   5.326205
    25  H    2.605988   2.166549   3.401541   3.798408   5.277081
    26  H    5.015840   3.802249   3.330233   2.178980   2.696406
                    6          7          8          9         10
     6  C    0.000000
     7  C    1.528878   0.000000
     8  C    2.599880   1.513899   0.000000
     9  O    3.632360   2.363348   1.209249   0.000000
    10  C    3.095809   2.619978   1.529609   2.389709   0.000000
    11  C    4.514758   3.941584   2.537662   2.763141   1.535709
    12  C    4.808547   4.658201   3.451477   3.786190   2.410547
    13  O    4.237694   4.485866   3.629871   4.352205   2.373125
    14  C    2.849531   3.154012   2.571184   3.534701   1.564987
    15  H    4.077963   4.205002   3.739800   3.883844   4.004328
    16  H    2.172947   2.841084   3.383722   3.978136   4.026020
    17  H    2.155336   3.469421   4.015966   4.945204   4.066913
    18  H    1.089587   2.161941   2.975776   4.146855   2.985877
    19  H    1.090769   2.140069   3.494645   4.405857   4.156214
    20  H    2.154194   1.094374   2.102260   2.868202   3.013551
    21  H    2.163433   1.092798   2.100082   2.451216   3.483118
    22  H    3.380137   2.904342   2.139386   3.025595   1.092126
    23  H    4.888756   4.052385   2.541942   2.260913   2.185406
    24  H    5.273570   4.690391   3.341173   3.565313   2.182059
    25  H    5.876628   5.725337   4.467154   4.693708   3.359465
    26  H    2.733959   3.399608   3.215888   4.326335   2.250484
                   11         12         13         14         15
    11  C    0.000000
    12  C    1.547590   0.000000
    13  O    2.325982   1.411494   0.000000
    14  C    2.407071   2.210931   1.405646   0.000000
    15  H    4.134666   3.491481   3.781542   3.445352   0.000000
    16  H    4.980549   4.807527   4.510277   3.449908   2.515951
    17  H    5.144460   4.750411   3.957096   2.968682   3.383140
    18  H    4.475027   4.769929   3.961772   2.617603   4.722528
    19  H    5.582503   5.879656   5.286086   3.913088   4.758412
    20  H    4.378967   5.311800   5.086343   3.771823   5.278149
    21  H    4.608153   5.289631   5.284743   4.007483   4.195580
    22  H    2.191495   3.215086   2.958441   2.202522   5.059244
    23  H    1.089270   2.201222   3.257832   3.222070   4.091205
    24  H    1.088253   2.168037   2.775079   3.078764   5.192000
    25  H    2.220249   1.090721   2.048385   3.176980   4.291718
    26  H    3.303460   3.154875   2.014242   1.088726   4.262908
                   16         17         18         19         20
    16  H    0.000000
    17  H    1.767872   0.000000
    18  H    3.068389   2.439693   0.000000
    19  H    2.449806   2.510300   1.756235   0.000000
    20  H    3.857421   4.278774   2.411224   2.529443   0.000000
    21  H    2.764882   3.869175   3.053179   2.396224   1.758224
    22  H    4.773250   4.614792   2.988447   4.358208   2.901852
    23  H    5.129460   5.638184   5.054669   5.895858   4.524048
    24  H    5.977024   5.982356   5.059929   6.336942   4.929030
    25  H    5.835038   5.704550   5.772885   6.949959   6.331180
    26  H    3.752938   2.806262   2.127957   3.688509   3.835980
                   21         22         23         24         25
    21  H    0.000000
    22  H    3.892491   0.000000
    23  H    4.493745   2.893175   0.000000
    24  H    5.440088   2.345318   1.777459   0.000000
    25  H    6.356975   4.011635   2.768994   2.415874   0.000000
    26  H    4.357803   2.431410   4.192090   3.766133   3.996863
                   26
    26  H    0.000000
 Stoichiometry    C11H12O3
 Framework group  C1[X(C11H12O3)]
 Deg. of freedom    72
 Full point group                 C1      NOp   1
 Largest Abelian subgroup         C1      NOp   1
 Largest concise Abelian subgroup C1      NOp   1
                         Standard orientation:                         
 ---------------------------------------------------------------------
 Center     Atomic      Atomic             Coordinates (Angstroms)
 Number     Number       Type             X           Y           Z
 ---------------------------------------------------------------------
      1          8           0        2.850850   -0.373520   -1.487888
      2          6           0        1.947241   -0.493136   -0.682214
      3          6           0        0.699133   -1.200702   -0.958852
      4          6           0       -0.298333   -1.192695   -0.062146
      5          6           0       -1.677881   -1.710894   -0.287456
      6          6           0       -2.711311   -0.707604    0.240950
      7          6           0       -2.510849    0.680149   -0.368497
      8          6           0       -1.109400    1.252469   -0.351814
      9          8           0       -0.717366    1.919424   -1.281204
     10          6           0       -0.242140    1.043140    0.890661
     11          6           0        1.206013    1.497899    0.657321
     12          6           0        1.995105    0.167142    0.695471
     13          8           0        1.288071   -0.609376    1.638571
     14          6           0       -0.051515   -0.471390    1.235692
     15          1           0        0.605724   -1.674904   -1.925011
     16          1           0       -1.833624   -1.898258   -1.350813
     17          1           0       -1.796381   -2.659106    0.244522
     18          1           0       -2.661280   -0.651559    1.327944
     19          1           0       -3.710923   -1.057247   -0.020400
     20          1           0       -3.143367    1.401204    0.158432
     21          1           0       -2.828375    0.680702   -1.414148
     22          1           0       -0.706538    1.573859    1.724573
     23          1           0        1.316203    2.010725   -0.297340
     24          1           0        1.552052    2.147283    1.459102
     25          1           0        3.027451    0.283536    1.027716
     26          1           0       -0.669750   -0.834728    2.054896
 ---------------------------------------------------------------------
 Rotational constants (GHZ):           1.1841362           0.6831051           0.6326569
 Leave Link  202 at Wed Jan 14 09:38:43 2026, MaxMem=  4294967296 cpu:               0.0 elap:               0.0
 (Enter /root//g16/l301.exe)
 Standard basis: def2SVP (5D, 7F)
 Ernie: Thresh=  0.10000D-02 Tol=  0.10000D-05 Strict=F.
 There are   270 symmetry adapted cartesian basis functions of A   symmetry.
 There are   256 symmetry adapted basis functions of A   symmetry.
   256 basis functions,   434 primitive gaussians,   270 cartesian basis functions
    51 alpha electrons       51 beta electrons
       nuclear repulsion energy       956.5343356694 Hartrees.
 IExCor=  402 DFT=T Ex+Corr=B3LYP ExCW=0 ScaHFX=  0.200000
 ScaDFX=  0.800000  0.720000  1.000000  0.810000 ScalE2=  1.000000  1.000000
 IRadAn=      5 IRanWt=     -1 IRanGd=            0 ICorTp=0 IEmpDi=141
 NAtoms=   26 NActive=   26 NUniq=   26 SFac= 1.00D+00 NAtFMM=   60 NAOKFM=F Big=F
 Integral buffers will be    131072 words long.
 Raffenetti 2 integral format.
 Two-electron integral symmetry is turned on.
 R6Disp:  Grimme-D3(BJ) Dispersion energy=       -0.0582830467 Hartrees.
 Nuclear repulsion after empirical dispersion term =      956.4760526227 Hartrees.
 Leave Link  301 at Wed Jan 14 09:38:43 2026, MaxMem=  4294967296 cpu:               0.3 elap:               0.0
 (Enter /root//g16/l302.exe)
 NPDir=0 NMtPBC=     1 NCelOv=     1 NCel=       1 NClECP=     1 NCelD=      1
         NCelK=      1 NCelE2=     1 NClLst=     1 CellRange=     0.0.
 One-electron integrals computed using PRISM.
 One-electron integral symmetry used in STVInt
   1 Symmetry operations used in ECPInt.
 ECPInt:  NShTT=    7260 NPrTT=   26324 LenC2=    7151 LenP2D=   19998.
 LDataN:  DoStor=T MaxTD1= 4 Len=   56
 NBasis=   256 RedAO= T EigKep=  3.17D-04  NBF=   256
 NBsUse=   256 1.00D-06 EigRej= -1.00D+00 NBFU=   256
 Precomputing XC quadrature grid using
 IXCGrd= 4 IRadAn=           5 IRanWt=          -1 IRanGd=           0 AccXCQ= 0.00D+00.
 Generated NRdTot=       0 NPtTot=           0 NUsed=           0 NTot=          32
 NSgBfM=   270   270   270   270   270 MxSgAt=    26 MxSgA2=    26.
 Leave Link  302 at Wed Jan 14 09:38:44 2026, MaxMem=  4294967296 cpu:               2.0 elap:               0.1
 (Enter /root//g16/l303.exe)
 DipDrv:  MaxL=1.
 Leave Link  303 at Wed Jan 14 09:38:44 2026, MaxMem=  4294967296 cpu:               0.2 elap:               0.0
 (Enter /root//g16/l401.exe)
 ExpMin= 1.22D-01 ExpMax= 2.27D+03 ExpMxC= 3.41D+02 IAcc=3 IRadAn=         5 AccDes= 0.00D+00
 Harris functional with IExCor=  402 and IRadAn=       5 diagonalized for initial guess.
 HarFok:  IExCor=  402 AccDes= 0.00D+00 IRadAn=         5 IDoV= 1 UseB2=F ITyADJ=14
 ICtDFT=  3500011 ScaDFX=  1.000000  1.000000  1.000000  1.000000
 FoFCou: FMM=F IPFlag=           0 FMFlag=      100000 FMFlg1=           0
         NFxFlg=           0 DoJE=T BraDBF=F KetDBF=T FulRan=T
         wScrn=  0.000000 ICntrl=       500 IOpCl=  0 I1Cent=   200000004 NGrid=           0
         NMat0=    1 NMatS0=      1 NMatT0=    0 NMatD0=    1 NMtDS0=    0 NMtDT0=    0
 Petite list used in FoFCou.
 Harris En= -651.603683757976    
 JPrj=0 DoOrth=F DoCkMO=F.
 Leave Link  401 at Wed Jan 14 09:38:44 2026, MaxMem=  4294967296 cpu:               7.1 elap:               0.5
 (Enter /root//g16/l502.exe)
 Integral symmetry usage will be decided dynamically.
 Closed shell SCF:
 Using DIIS extrapolation, IDIIS=  1040.
 NGot=  4294967296 LenX=  4294814202 LenY=  4294740861
 Requested convergence on RMS density matrix=1.00D-08 within 128 cycles.
 Requested convergence on MAX density matrix=1.00D-06.
 Requested convergence on             energy=1.00D-06.
 No special actions if energy rises.
 Fock matrices will be formed incrementally for  20 cycles.
 Integral accuracy reduced to 1.0D-05 until final iterations.

 Cycle   1  Pass 0  IDiag  1:
 FoFJK:  IHMeth= 1 ICntrl=       0 DoSepK=F KAlg= 0 I1Cent=           0 FoldK=F
 IRaf= 960000000 NMat=       1 IRICut=       1 DoRegI=T DoRafI=F ISym2E= 0 IDoP0=0 IntGTp=1.
 FoFCou: FMM=F IPFlag=           0 FMFlag=      100000 FMFlg1=           0
         NFxFlg=           0 DoJE=F BraDBF=F KetDBF=F FulRan=T
         wScrn=  0.000000 ICntrl=         0 IOpCl=  0 I1Cent=           0 NGrid=           0
         NMat0=    1 NMatS0=      1 NMatT0=    0 NMatD0=    1 NMtDS0=    0 NMtDT0=    0
 Symmetry not used in FoFCou.
 E= -651.309156739197    
 DIIS: error= 2.05D-02 at cycle   1 NSaved=   1.
 NSaved= 1 IEnMin= 1 EnMin= -651.309156739197     IErMin= 1 ErrMin= 2.05D-02
 ErrMax= 2.05D-02  0.00D+00 EMaxC= 1.00D-01 BMatC= 3.16D-01 BMatP= 3.16D-01
 IDIUse=3 WtCom= 7.95D-01 WtEn= 2.05D-01
 Coeff-Com:  0.100D+01
 Coeff-En:   0.100D+01
 Coeff:      0.100D+01
 Gap=     0.134 Goal=   None    Shift=    0.000
 GapD=    0.134 DampG=1.000 DampE=0.500 DampFc=0.5000 IDamp=-1.
 Damping current iteration by 5.00D-01
 RMSDP=8.73D-03 MaxDP=4.83D-01              OVMax= 2.62D-01

 Cycle   2  Pass 0  IDiag  1:
 RMSU=  4.36D-03    CP:  9.96D-01
 E= -651.404381430697     Delta-E=       -0.095224691500 Rises=F Damp=T
 DIIS: error= 9.05D-03 at cycle   2 NSaved=   2.
 NSaved= 2 IEnMin= 2 EnMin= -651.404381430697     IErMin= 2 ErrMin= 9.05D-03
 ErrMax= 9.05D-03  0.00D+00 EMaxC= 1.00D-01 BMatC= 4.85D-02 BMatP= 3.16D-01
 IDIUse=3 WtCom= 9.10D-01 WtEn= 9.05D-02
 Coeff-Com:  0.207D+00 0.793D+00
 Coeff-En:   0.296D+00 0.704D+00
 Coeff:      0.215D+00 0.785D+00
 Gap=     0.200 Goal=   None    Shift=    0.000
 RMSDP=2.83D-03 MaxDP=1.65D-01 DE=-9.52D-02 OVMax= 1.71D-01

 Cycle   3  Pass 0  IDiag  1:
 RMSU=  2.43D-03    CP:  9.66D-01  7.04D-01
 E= -651.560603819750     Delta-E=       -0.156222389052 Rises=F Damp=F
 DIIS: error= 1.07D-02 at cycle   3 NSaved=   3.
 NSaved= 3 IEnMin= 3 EnMin= -651.560603819750     IErMin= 2 ErrMin= 9.05D-03
 ErrMax= 1.07D-02  0.00D+00 EMaxC= 1.00D-01 BMatC= 5.51D-02 BMatP= 4.85D-02
 IDIUse=2 WtCom= 0.00D+00 WtEn= 1.00D+00
 Coeff-En:   0.000D+00 0.000D+00 0.100D+01
 Coeff:      0.000D+00 0.000D+00 0.100D+01
 Gap=     0.166 Goal=   None    Shift=    0.000
 RMSDP=4.50D-03 MaxDP=2.20D-01 DE=-1.56D-01 OVMax= 2.76D-01

 Cycle   4  Pass 0  IDiag  1:
 RMSU=  2.35D-03    CP:  1.00D+00  1.33D+00 -5.32D-02
 E= -651.313479307408     Delta-E=        0.247124512341 Rises=F Damp=F
 DIIS: error= 2.59D-02 at cycle   4 NSaved=   4.
 NSaved= 4 IEnMin= 3 EnMin= -651.560603819750     IErMin= 2 ErrMin= 9.05D-03
 ErrMax= 2.59D-02  0.00D+00 EMaxC= 1.00D-01 BMatC= 3.53D-01 BMatP= 4.85D-02
 IDIUse=2 WtCom= 0.00D+00 WtEn= 1.00D+00
 Coeff-En:   0.000D+00 0.000D+00 0.801D+00 0.199D+00
 Coeff:      0.000D+00 0.000D+00 0.801D+00 0.199D+00
 Gap=     0.160 Goal=   None    Shift=    0.000
 RMSDP=2.63D-03 MaxDP=1.44D-01 DE= 2.47D-01 OVMax= 1.27D-01

 Cycle   5  Pass 0  IDiag  1:
 RMSU=  3.10D-04    CP:  9.82D-01  9.10D-01  5.11D-01  5.04D-01
 E= -651.588192181771     Delta-E=       -0.274712874363 Rises=F Damp=F
 DIIS: error= 7.28D-03 at cycle   5 NSaved=   5.
 NSaved= 5 IEnMin= 5 EnMin= -651.588192181771     IErMin= 5 ErrMin= 7.28D-03
 ErrMax= 7.28D-03  0.00D+00 EMaxC= 1.00D-01 BMatC= 2.57D-02 BMatP= 4.85D-02
 IDIUse=3 WtCom= 9.27D-01 WtEn= 7.28D-02
 Coeff-Com: -0.540D-02 0.498D-01 0.301D+00-0.104D+00 0.758D+00
 Coeff-En:   0.000D+00 0.000D+00 0.353D+00 0.000D+00 0.647D+00
 Coeff:     -0.501D-02 0.462D-01 0.305D+00-0.963D-01 0.750D+00
 Gap=     0.171 Goal=   None    Shift=    0.000
 RMSDP=8.52D-04 MaxDP=3.83D-02 DE=-2.75D-01 OVMax= 3.65D-02

 Cycle   6  Pass 0  IDiag  1:
 RMSU=  9.97D-05    CP:  9.75D-01  8.06D-01  7.09D-01  2.90D-01  8.58D-01
 E= -651.610459072542     Delta-E=       -0.022266890771 Rises=F Damp=F
 DIIS: error= 4.87D-04 at cycle   6 NSaved=   6.
 NSaved= 6 IEnMin= 6 EnMin= -651.610459072542     IErMin= 6 ErrMin= 4.87D-04
 ErrMax= 4.87D-04  0.00D+00 EMaxC= 1.00D-01 BMatC= 9.44D-05 BMatP= 2.57D-02
 IDIUse=3 WtCom= 9.95D-01 WtEn= 4.87D-03
 Coeff-Com: -0.597D-02 0.266D-01 0.154D+00-0.737D-01 0.461D+00 0.438D+00
 Coeff-En:   0.000D+00 0.000D+00 0.000D+00 0.000D+00 0.000D+00 0.100D+01
 Coeff:     -0.594D-02 0.264D-01 0.153D+00-0.733D-01 0.459D+00 0.441D+00
 Gap=     0.169 Goal=   None    Shift=    0.000
 RMSDP=5.94D-05 MaxDP=3.77D-03 DE=-2.23D-02 OVMax= 3.99D-03

 Cycle   7  Pass 0  IDiag  1:
 RMSU=  2.95D-05    CP:  9.75D-01  8.09D-01  7.07D-01  2.90D-01  8.89D-01
                    CP:  5.13D-01
 E= -651.610536108164     Delta-E=       -0.000077035623 Rises=F Damp=F
 DIIS: error= 1.66D-04 at cycle   7 NSaved=   7.
 NSaved= 7 IEnMin= 7 EnMin= -651.610536108164     IErMin= 7 ErrMin= 1.66D-04
 ErrMax= 1.66D-04  0.00D+00 EMaxC= 1.00D-01 BMatC= 7.87D-06 BMatP= 9.44D-05
 IDIUse=3 WtCom= 9.98D-01 WtEn= 1.66D-03
 Coeff-Com: -0.118D-02 0.281D-02 0.369D-01-0.182D-01 0.112D+00 0.219D+00
 Coeff-Com:  0.649D+00
 Coeff-En:   0.000D+00 0.000D+00 0.000D+00 0.000D+00 0.000D+00 0.167D-01
 Coeff-En:   0.983D+00
 Coeff:     -0.118D-02 0.281D-02 0.369D-01-0.181D-01 0.111D+00 0.219D+00
 Coeff:      0.649D+00
 Gap=     0.169 Goal=   None    Shift=    0.000
 RMSDP=1.70D-05 MaxDP=1.07D-03 DE=-7.70D-05 OVMax= 7.94D-04

 Cycle   8  Pass 0  IDiag  1:
 RMSU=  9.99D-06    CP:  9.75D-01  8.08D-01  7.10D-01  2.90D-01  8.79D-01
                    CP:  5.83D-01  7.44D-01
 E= -651.610541521394     Delta-E=       -0.000005413230 Rises=F Damp=F
 DIIS: error= 6.08D-05 at cycle   8 NSaved=   8.
 NSaved= 8 IEnMin= 8 EnMin= -651.610541521394     IErMin= 8 ErrMin= 6.08D-05
 ErrMax= 6.08D-05  0.00D+00 EMaxC= 1.00D-01 BMatC= 1.29D-06 BMatP= 7.87D-06
 IDIUse=1 WtCom= 1.00D+00 WtEn= 0.00D+00
 Coeff-Com: -0.162D-03-0.427D-03 0.137D-01-0.595D-02 0.383D-01 0.109D+00
 Coeff-Com:  0.423D+00 0.423D+00
 Coeff:     -0.162D-03-0.427D-03 0.137D-01-0.595D-02 0.383D-01 0.109D+00
 Coeff:      0.423D+00 0.423D+00
 Gap=     0.169 Goal=   None    Shift=    0.000
 RMSDP=5.69D-06 MaxDP=2.24D-04 DE=-5.41D-06 OVMax= 3.74D-04

 Initial convergence to 1.0D-05 achieved.  Increase integral accuracy.
 Cycle   9  Pass 1  IDiag  1:
 E= -651.610530215458     Delta-E=        0.000011305936 Rises=F Damp=F
 DIIS: error= 2.61D-05 at cycle   1 NSaved=   1.
 NSaved= 1 IEnMin= 1 EnMin= -651.610530215458     IErMin= 1 ErrMin= 2.61D-05
 ErrMax= 2.61D-05  0.00D+00 EMaxC= 1.00D-01 BMatC= 1.97D-07 BMatP= 1.97D-07
 IDIUse=1 WtCom= 1.00D+00 WtEn= 0.00D+00
 Coeff-Com:  0.100D+01
 Coeff:      0.100D+01
 Gap=     0.170 Goal=   None    Shift=    0.000
 RMSDP=5.69D-06 MaxDP=2.24D-04 DE= 1.13D-05 OVMax= 2.95D-04

 Cycle  10  Pass 1  IDiag  1:
 RMSU=  1.94D-05    CP:  1.00D+00
 E= -651.610530155821     Delta-E=        0.000000059638 Rises=F Damp=F
 DIIS: error= 1.89D-05 at cycle   2 NSaved=   2.
 NSaved= 2 IEnMin= 1 EnMin= -651.610530215458     IErMin= 2 ErrMin= 1.89D-05
 ErrMax= 1.89D-05  0.00D+00 EMaxC= 1.00D-01 BMatC= 2.46D-07 BMatP= 1.97D-07
 IDIUse=1 WtCom= 1.00D+00 WtEn= 0.00D+00
 Coeff-Com:  0.536D+00 0.464D+00
 Coeff:      0.536D+00 0.464D+00
 Gap=     0.169 Goal=   None    Shift=    0.000
 RMSDP=3.75D-06 MaxDP=1.65D-04 DE= 5.96D-08 OVMax= 3.16D-04

 Cycle  11  Pass 1  IDiag  1:
 RMSU=  3.63D-06    CP:  1.00D+00  9.62D-01
 E= -651.610530332976     Delta-E=       -0.000000177155 Rises=F Damp=F
 DIIS: error= 1.12D-05 at cycle   3 NSaved=   3.
 NSaved= 3 IEnMin= 3 EnMin= -651.610530332976     IErMin= 3 ErrMin= 1.12D-05
 ErrMax= 1.12D-05  0.00D+00 EMaxC= 1.00D-01 BMatC= 6.39D-08 BMatP= 1.97D-07
 IDIUse=1 WtCom= 1.00D+00 WtEn= 0.00D+00
 Coeff-Com:  0.297D-01 0.334D+00 0.637D+00
 Coeff:      0.297D-01 0.334D+00 0.637D+00
 Gap=     0.170 Goal=   None    Shift=    0.000
 RMSDP=1.53D-06 MaxDP=7.88D-05 DE=-1.77D-07 OVMax= 1.02D-04

 Cycle  12  Pass 1  IDiag  1:
 RMSU=  6.14D-07    CP:  1.00D+00  9.87D-01  6.52D-01
 E= -651.610530387303     Delta-E=       -0.000000054328 Rises=F Damp=F
 DIIS: error= 4.08D-06 at cycle   4 NSaved=   4.
 NSaved= 4 IEnMin= 4 EnMin= -651.610530387303     IErMin= 4 ErrMin= 4.08D-06
 ErrMax= 4.08D-06  0.00D+00 EMaxC= 1.00D-01 BMatC= 6.20D-09 BMatP= 6.39D-08
 IDIUse=1 WtCom= 1.00D+00 WtEn= 0.00D+00
 Coeff-Com: -0.405D-02 0.199D+00 0.416D+00 0.390D+00
 Coeff:     -0.405D-02 0.199D+00 0.416D+00 0.390D+00
 Gap=     0.170 Goal=   None    Shift=    0.000
 RMSDP=4.11D-07 MaxDP=1.86D-05 DE=-5.43D-08 OVMax= 1.49D-05

 Cycle  13  Pass 1  IDiag  1:
 RMSU=  1.65D-07    CP:  1.00D+00  9.87D-01  6.76D-01  4.20D-01
 E= -651.610530392375     Delta-E=       -0.000000005071 Rises=F Damp=F
 DIIS: error= 7.76D-07 at cycle   5 NSaved=   5.
 NSaved= 5 IEnMin= 5 EnMin= -651.610530392375     IErMin= 5 ErrMin= 7.76D-07
 ErrMax= 7.76D-07  0.00D+00 EMaxC= 1.00D-01 BMatC= 2.17D-10 BMatP= 6.20D-09
 IDIUse=1 WtCom= 1.00D+00 WtEn= 0.00D+00
 Coeff-Com: -0.392D-02 0.105D+00 0.223D+00 0.237D+00 0.439D+00
 Coeff:     -0.392D-02 0.105D+00 0.223D+00 0.237D+00 0.439D+00
 Gap=     0.170 Goal=   None    Shift=    0.000
 RMSDP=8.64D-08 MaxDP=3.93D-06 DE=-5.07D-09 OVMax= 3.97D-06

 Cycle  14  Pass 1  IDiag  1:
 RMSU=  6.05D-08    CP:  1.00D+00  9.88D-01  6.73D-01  4.47D-01  6.63D-01
 E= -651.610530392549     Delta-E=       -0.000000000174 Rises=F Damp=F
 DIIS: error= 1.37D-07 at cycle   6 NSaved=   6.
 NSaved= 6 IEnMin= 6 EnMin= -651.610530392549     IErMin= 6 ErrMin= 1.37D-07
 ErrMax= 1.37D-07  0.00D+00 EMaxC= 1.00D-01 BMatC= 7.42D-12 BMatP= 2.17D-10
 IDIUse=1 WtCom= 1.00D+00 WtEn= 0.00D+00
 Coeff-Com: -0.141D-02 0.314D-01 0.663D-01 0.752D-01 0.206D+00 0.623D+00
 Coeff:     -0.141D-02 0.314D-01 0.663D-01 0.752D-01 0.206D+00 0.623D+00
 Gap=     0.170 Goal=   None    Shift=    0.000
 RMSDP=1.93D-08 MaxDP=7.48D-07 DE=-1.74D-10 OVMax= 1.29D-06

 Cycle  15  Pass 1  IDiag  1:
 RMSU=  1.68D-08    CP:  1.00D+00  9.88D-01  6.73D-01  4.48D-01  6.80D-01
                    CP:  8.50D-01
 E= -651.610530392550     Delta-E=       -0.000000000001 Rises=F Damp=F
 DIIS: error= 6.74D-08 at cycle   7 NSaved=   7.
 NSaved= 7 IEnMin= 7 EnMin= -651.610530392550     IErMin= 7 ErrMin= 6.74D-08
 ErrMax= 6.74D-08  0.00D+00 EMaxC= 1.00D-01 BMatC= 2.47D-12 BMatP= 7.42D-12
 IDIUse=1 WtCom= 1.00D+00 WtEn= 0.00D+00
 Coeff-Com: -0.471D-03 0.812D-02 0.165D-01 0.215D-01 0.825D-01 0.408D+00
 Coeff-Com:  0.463D+00
 Coeff:     -0.471D-03 0.812D-02 0.165D-01 0.215D-01 0.825D-01 0.408D+00
 Coeff:      0.463D+00
 Gap=     0.170 Goal=   None    Shift=    0.000
 RMSDP=1.01D-08 MaxDP=5.40D-07 DE=-9.09D-13 OVMax= 6.12D-07

 Cycle  16  Pass 1  IDiag  1:
 RMSU=  7.18D-09    CP:  1.00D+00  9.88D-01  6.73D-01  4.51D-01  6.86D-01
                    CP:  8.98D-01  6.50D-01
 E= -651.610530392558     Delta-E=       -0.000000000008 Rises=F Damp=F
 DIIS: error= 2.36D-08 at cycle   8 NSaved=   8.
 NSaved= 8 IEnMin= 8 EnMin= -651.610530392558     IErMin= 8 ErrMin= 2.36D-08
 ErrMax= 2.36D-08  0.00D+00 EMaxC= 1.00D-01 BMatC= 1.98D-13 BMatP= 2.47D-12
 IDIUse=1 WtCom= 1.00D+00 WtEn= 0.00D+00
 Coeff-Com:  0.334D-04-0.192D-02-0.482D-02-0.349D-02 0.340D-02 0.105D+00
 Coeff-Com:  0.246D+00 0.656D+00
 Coeff:      0.334D-04-0.192D-02-0.482D-02-0.349D-02 0.340D-02 0.105D+00
 Coeff:      0.246D+00 0.656D+00
 Gap=     0.170 Goal=   None    Shift=    0.000
 RMSDP=3.03D-09 MaxDP=1.56D-07 DE=-8.19D-12 OVMax= 1.52D-07

 SCF Done:  E(RB3LYP) =  -651.610530393     A.U. after   16 cycles
            NFock= 16  Conv=0.30D-08     -V/T= 2.0094
 KE= 6.455554750605D+02 PE=-3.430048755826D+03 EE= 1.176406697750D+03
 Leave Link  502 at Wed Jan 14 09:38:57 2026, MaxMem=  4294967296 cpu:             200.1 elap:              12.5
 (Enter /root//g16/l508.exe)
 QCSCF skips out because SCF is already converged.
 Leave Link  508 at Wed Jan 14 09:38:57 2026, MaxMem=  4294967296 cpu:               0.0 elap:               0.0
 (Enter /root//g16/l601.exe)
 Copying SCF densities to generalized density rwf, IOpCl= 0 IROHF=0.

 **********************************************************************

            Population analysis using the SCF density.

 **********************************************************************

 Orbital symmetries:
       Occupied  (A) (A) (A) (A) (A) (A) (A) (A) (A) (A) (A) (A)
                 (A) (A) (A) (A) (A) (A) (A) (A) (A) (A) (A) (A)
                 (A) (A) (A) (A) (A) (A) (A) (A) (A) (A) (A) (A)
                 (A) (A) (A) (A) (A) (A) (A) (A) (A) (A) (A) (A)
                 (A) (A) (A)
       Virtual   (A) (A) (A) (A) (A) (A) (A) (A) (A) (A) (A) (A)
                 (A) (A) (A) (A) (A) (A) (A) (A) (A) (A) (A) (A)
                 (A) (A) (A) (A) (A) (A) (A) (A) (A) (A) (A) (A)
                 (A) (A) (A) (A) (A) (A) (A) (A) (A) (A) (A) (A)
                 (A) (A) (A) (A) (A) (A) (A) (A) (A) (A) (A) (A)
                 (A) (A) (A) (A) (A) (A) (A) (A) (A) (A) (A) (A)
                 (A) (A) (A) (A) (A) (A) (A) (A) (A) (A) (A) (A)
                 (A) (A) (A) (A) (A) (A) (A) (A) (A) (A) (A) (A)
                 (A) (A) (A) (A) (A) (A) (A) (A) (A) (A) (A) (A)
                 (A) (A) (A) (A) (A) (A) (A) (A) (A) (A) (A) (A)
                 (A) (A) (A) (A) (A) (A) (A) (A) (A) (A) (A) (A)
                 (A) (A) (A) (A) (A) (A) (A) (A) (A) (A) (A) (A)
                 (A) (A) (A) (A) (A) (A) (A) (A) (A) (A) (A) (A)
                 (A) (A) (A) (A) (A) (A) (A) (A) (A) (A) (A) (A)
                 (A) (A) (A) (A) (A) (A) (A) (A) (A) (A) (A) (A)
                 (A) (A) (A) (A) (A) (A) (A) (A) (A) (A) (A) (A)
                 (A) (A) (A) (A) (A) (A) (A) (A) (A) (A) (A) (A)
                 (A)
 The electronic state is 1-A.
 Alpha  occ. eigenvalues --  -19.14937 -19.13446 -19.11791 -10.28518 -10.26511
 Alpha  occ. eigenvalues --  -10.26148 -10.24095 -10.22398 -10.21581 -10.21505
 Alpha  occ. eigenvalues --  -10.21433 -10.20757 -10.19624 -10.19543  -1.06778
 Alpha  occ. eigenvalues --   -1.04539  -1.02162  -0.86321  -0.80317  -0.79653
 Alpha  occ. eigenvalues --   -0.76494  -0.73202  -0.65280  -0.64195  -0.62975
 Alpha  occ. eigenvalues --   -0.58065  -0.54999  -0.54391  -0.52056  -0.50661
 Alpha  occ. eigenvalues --   -0.49217  -0.47976  -0.47342  -0.45008  -0.43484
 Alpha  occ. eigenvalues --   -0.42993  -0.42422  -0.41512  -0.41277  -0.39438
 Alpha  occ. eigenvalues --   -0.38714  -0.38066  -0.36972  -0.36779  -0.36304
 Alpha  occ. eigenvalues --   -0.35258  -0.33644  -0.29641  -0.27476  -0.26073
 Alpha  occ. eigenvalues --   -0.23612
 Alpha virt. eigenvalues --   -0.06660  -0.02523   0.03139   0.04345   0.05046
 Alpha virt. eigenvalues --    0.07298   0.07729   0.09827   0.10221   0.11390
 Alpha virt. eigenvalues --    0.11928   0.12958   0.13481   0.14582   0.15736
 Alpha virt. eigenvalues --    0.16070   0.16497   0.18819   0.19689   0.20942
 Alpha virt. eigenvalues --    0.21623   0.22882   0.24383   0.24843   0.26478
 Alpha virt. eigenvalues --    0.28266   0.29923   0.33106   0.33991   0.35678
 Alpha virt. eigenvalues --    0.37777   0.39902   0.41971   0.43613   0.44482
 Alpha virt. eigenvalues --    0.45514   0.48422   0.49463   0.50549   0.51195
 Alpha virt. eigenvalues --    0.52718   0.53860   0.54765   0.56508   0.57146
 Alpha virt. eigenvalues --    0.57621   0.58484   0.59199   0.60241   0.60449
 Alpha virt. eigenvalues --    0.61470   0.62272   0.63227   0.63669   0.64565
 Alpha virt. eigenvalues --    0.64771   0.65032   0.65907   0.66440   0.66889
 Alpha virt. eigenvalues --    0.67251   0.67990   0.68422   0.69360   0.69921
 Alpha virt. eigenvalues --    0.70385   0.72236   0.72752   0.74690   0.75078
 Alpha virt. eigenvalues --    0.76738   0.79396   0.83193   0.83817   0.85536
 Alpha virt. eigenvalues --    0.86042   0.88420   0.89656   0.94897   0.96267
 Alpha virt. eigenvalues --    0.97816   0.98934   1.02600   1.05436   1.08477
 Alpha virt. eigenvalues --    1.10576   1.13618   1.15619   1.18250   1.18748
 Alpha virt. eigenvalues --    1.20278   1.21214   1.26047   1.26516   1.28800
 Alpha virt. eigenvalues --    1.32436   1.34226   1.36669   1.37859   1.40444
 Alpha virt. eigenvalues --    1.41700   1.44862   1.48121   1.48996   1.52549
 Alpha virt. eigenvalues --    1.53113   1.55422   1.55832   1.58529   1.60890
 Alpha virt. eigenvalues --    1.64060   1.66333   1.67294   1.68556   1.69194
 Alpha virt. eigenvalues --    1.71064   1.73245   1.74001   1.74456   1.75384
 Alpha virt. eigenvalues --    1.76737   1.77196   1.77807   1.78269   1.79771
 Alpha virt. eigenvalues --    1.81370   1.82311   1.83822   1.84640   1.85288
 Alpha virt. eigenvalues --    1.86491   1.87119   1.88056   1.90427   1.91071
 Alpha virt. eigenvalues --    1.91872   1.93087   1.95396   1.96693   1.98183
 Alpha virt. eigenvalues --    1.98857   1.99800   2.01995   2.03526   2.07926
 Alpha virt. eigenvalues --    2.08863   2.09723   2.13223   2.14193   2.15315
 Alpha virt. eigenvalues --    2.18340   2.19945   2.22470   2.24298   2.25250
 Alpha virt. eigenvalues --    2.26242   2.30967   2.31693   2.32988   2.34260
 Alpha virt. eigenvalues --    2.36986   2.38534   2.40279   2.42846   2.44969
 Alpha virt. eigenvalues --    2.46163   2.51216   2.51338   2.54515   2.58438
 Alpha virt. eigenvalues --    2.58914   2.61724   2.63221   2.65113   2.67106
 Alpha virt. eigenvalues --    2.69612   2.70770   2.73433   2.75125   2.76074
 Alpha virt. eigenvalues --    2.78384   2.81066   2.82465   2.86710   2.89205
 Alpha virt. eigenvalues --    2.90979   2.92353   2.92670   2.96405   2.99457
 Alpha virt. eigenvalues --    3.01709   3.03194   3.05465   3.05660   3.08027
 Alpha virt. eigenvalues --    3.14116   3.16885   3.18091   3.22893   3.31610
 Alpha virt. eigenvalues --    3.37932   3.41467   3.59016   3.62099   3.64856
          Condensed to atoms (all electrons):
               1          2          3          4          5          6
     1  O    7.615018   0.728156  -0.093987   0.006534  -0.000091   0.000002
     2  C    0.728156   4.846550   0.206240   0.082146   0.007727  -0.000295
     3  C   -0.093987   0.206240   5.446049   0.234922  -0.050820   0.000809
     4  C    0.006534   0.082146   0.234922   5.633326   0.319279  -0.029864
     5  C   -0.000091   0.007727  -0.050820   0.319279   4.650879   0.386129
     6  C    0.000002  -0.000295   0.000809  -0.029864   0.386129   4.707233
     7  C   -0.000001  -0.000367   0.002921  -0.017757  -0.076155   0.346856
     8  C    0.000049   0.005605   0.004612  -0.000370  -0.008442  -0.039940
     9  O    0.000005   0.000985   0.001328  -0.007684   0.001155   0.003784
    10  C   -0.000098  -0.030462  -0.010348   0.009975  -0.015094   0.027960
    11  C    0.001196  -0.043855   0.019746  -0.055466  -0.000294  -0.001003
    12  C   -0.087078   0.210532  -0.176175   0.007608  -0.001254   0.000410
    13  O    0.001448  -0.025617  -0.003101  -0.050447   0.005329  -0.000347
    14  C    0.000749  -0.039782   0.021120   0.148164  -0.054626  -0.000226
    15  H    0.005877  -0.044749   0.412592  -0.068878  -0.021802   0.000441
    16  H   -0.000006   0.000261  -0.017211  -0.004826   0.350121  -0.022407
    17  H    0.000003  -0.000572   0.001334   0.004824   0.327237  -0.006832
    18  H    0.000000   0.000060  -0.000510  -0.031113  -0.000352   0.335291
    19  H   -0.000000   0.000022  -0.000186   0.010121  -0.012487   0.343552
    20  H   -0.000000  -0.000007   0.000116   0.000177   0.008923  -0.001989
    21  H    0.000000   0.000064  -0.000836  -0.005047   0.002450  -0.015335
    22  H   -0.000010   0.000062   0.000691   0.003526   0.001531  -0.006377
    23  H    0.002800   0.003224  -0.000670   0.000703   0.000134  -0.000237
    24  H   -0.000230   0.007001  -0.001495   0.001303  -0.000059   0.000049
    25  H    0.008854  -0.014487   0.012179   0.001169   0.000129  -0.000013
    26  H    0.000014   0.000894   0.007491  -0.030229  -0.005894  -0.004099
               7          8          9         10         11         12
     1  O   -0.000001   0.000049   0.000005  -0.000098   0.001196  -0.087078
     2  C   -0.000367   0.005605   0.000985  -0.030462  -0.043855   0.210532
     3  C    0.002921   0.004612   0.001328  -0.010348   0.019746  -0.176175
     4  C   -0.017757  -0.000370  -0.007684   0.009975  -0.055466   0.007608
     5  C   -0.076155  -0.008442   0.001155  -0.015094  -0.000294  -0.001254
     6  C    0.346856  -0.039940   0.003784   0.027960  -0.001003   0.000410
     7  C    4.970148   0.329518  -0.092707  -0.233112   0.013973  -0.000440
     8  C    0.329518   4.910858   0.745353   0.032093   0.011021  -0.012187
     9  O   -0.092707   0.745353   7.614432  -0.142301   0.008906  -0.002234
    10  C   -0.233112   0.032093  -0.142301   5.997581   0.227901  -0.026518
    11  C    0.013973   0.011021   0.008906   0.227901   4.680506   0.341210
    12  C   -0.000440  -0.012187  -0.002234  -0.026518   0.341210   5.140078
    13  O    0.000091   0.003181  -0.000027  -0.068383  -0.055577   0.247665
    14  C    0.012666   0.009179   0.006631   0.122550  -0.015540  -0.066863
    15  H    0.000018   0.000340   0.000182  -0.001879  -0.000498   0.016856
    16  H   -0.000302  -0.004869  -0.000047  -0.001845   0.000129  -0.000192
    17  H    0.009633  -0.000187  -0.000019   0.001663  -0.000102   0.000284
    18  H   -0.002298  -0.015089  -0.000119  -0.003532   0.000253  -0.000149
    19  H   -0.002859   0.007816  -0.000163  -0.000382   0.000012  -0.000007
    20  H    0.309777   0.006446   0.001310   0.005501  -0.000067  -0.000039
    21  H    0.307365   0.003598   0.011492   0.017403  -0.000693   0.000016
    22  H    0.009632   0.007876   0.002031   0.228565   0.023255  -0.001226
    23  H    0.003675  -0.016529   0.028350  -0.005953   0.328820  -0.005236
    24  H   -0.000540   0.006836   0.000585   0.003648   0.317325   0.009240
    25  H    0.000030  -0.000760  -0.000042   0.012860  -0.012895   0.323719
    26  H    0.002054  -0.002217  -0.000178   0.001808   0.007778   0.005355
              13         14         15         16         17         18
     1  O    0.001448   0.000749   0.005877  -0.000006   0.000003   0.000000
     2  C   -0.025617  -0.039782  -0.044749   0.000261  -0.000572   0.000060
     3  C   -0.003101   0.021120   0.412592  -0.017211   0.001334  -0.000510
     4  C   -0.050447   0.148164  -0.068878  -0.004826   0.004824  -0.031113
     5  C    0.005329  -0.054626  -0.021802   0.350121   0.327237  -0.000352
     6  C   -0.000347  -0.000226   0.000441  -0.022407  -0.006832   0.335291
     7  C    0.000091   0.012666   0.000018  -0.000302   0.009633  -0.002298
     8  C    0.003181   0.009179   0.000340  -0.004869  -0.000187  -0.015089
     9  O   -0.000027   0.006631   0.000182  -0.000047  -0.000019  -0.000119
    10  C   -0.068383   0.122550  -0.001879  -0.001845   0.001663  -0.003532
    11  C   -0.055577  -0.015540  -0.000498   0.000129  -0.000102   0.000253
    12  C    0.247665  -0.066863   0.016856  -0.000192   0.000284  -0.000149
    13  O    7.976732   0.338707  -0.000873  -0.000189   0.000164   0.000026
    14  C    0.338707   4.855437   0.011078   0.013083  -0.009861   0.024133
    15  H   -0.000873   0.011078   0.705801   0.007200   0.000800  -0.000022
    16  H   -0.000189   0.013083   0.007200   0.705884  -0.024796   0.008586
    17  H    0.000164  -0.009861   0.000800  -0.024796   0.681749  -0.010190
    18  H    0.000026   0.024133  -0.000022   0.008586  -0.010190   0.711897
    19  H   -0.000002  -0.000916  -0.000042  -0.009432  -0.003822  -0.021515
    20  H    0.000001  -0.000915   0.000001  -0.000146  -0.000424  -0.010908
    21  H    0.000008  -0.000287  -0.000047   0.003687  -0.000181   0.007919
    22  H    0.002020   0.030623   0.000038   0.000043   0.000027   0.001682
    23  H    0.003935   0.001004  -0.000245  -0.000004  -0.000003   0.000017
    24  H    0.002129  -0.001275   0.000047   0.000000   0.000001  -0.000017
    25  H   -0.017774   0.000423  -0.000571  -0.000004   0.000001   0.000001
    26  H   -0.022343   0.341745  -0.000348  -0.000276   0.003910  -0.001540
              19         20         21         22         23         24
     1  O   -0.000000  -0.000000   0.000000  -0.000010   0.002800  -0.000230
     2  C    0.000022  -0.000007   0.000064   0.000062   0.003224   0.007001
     3  C   -0.000186   0.000116  -0.000836   0.000691  -0.000670  -0.001495
     4  C    0.010121   0.000177  -0.005047   0.003526   0.000703   0.001303
     5  C   -0.012487   0.008923   0.002450   0.001531   0.000134  -0.000059
     6  C    0.343552  -0.001989  -0.015335  -0.006377  -0.000237   0.000049
     7  C   -0.002859   0.309777   0.307365   0.009632   0.003675  -0.000540
     8  C    0.007816   0.006446   0.003598   0.007876  -0.016529   0.006836
     9  O   -0.000163   0.001310   0.011492   0.002031   0.028350   0.000585
    10  C   -0.000382   0.005501   0.017403   0.228565  -0.005953   0.003648
    11  C    0.000012  -0.000067  -0.000693   0.023255   0.328820   0.317325
    12  C   -0.000007  -0.000039   0.000016  -0.001226  -0.005236   0.009240
    13  O   -0.000002   0.000001   0.000008   0.002020   0.003935   0.002129
    14  C   -0.000916  -0.000915  -0.000287   0.030623   0.001004  -0.001275
    15  H   -0.000042   0.000001  -0.000047   0.000038  -0.000245   0.000047
    16  H   -0.009432  -0.000146   0.003687   0.000043  -0.000004   0.000000
    17  H   -0.003822  -0.000424  -0.000181   0.000027  -0.000003   0.000001
    18  H   -0.021515  -0.010908   0.007919   0.001682   0.000017  -0.000017
    19  H    0.692551  -0.003739  -0.013427   0.000049   0.000006  -0.000000
    20  H   -0.003739   0.668126  -0.010038   0.000046  -0.000168   0.000021
    21  H   -0.013427  -0.010038   0.678126  -0.000388  -0.000119   0.000014
    22  H    0.000049   0.000046  -0.000388   0.710086   0.004128  -0.016761
    23  H    0.000006  -0.000168  -0.000119   0.004128   0.641088  -0.022308
    24  H   -0.000000   0.000021   0.000014  -0.016761  -0.022308   0.704051
    25  H    0.000000  -0.000000  -0.000001  -0.000127   0.004072  -0.017486
    26  H   -0.000053   0.000007  -0.000035  -0.015097  -0.000549  -0.000060
              25         26
     1  O    0.008854   0.000014
     2  C   -0.014487   0.000894
     3  C    0.012179   0.007491
     4  C    0.001169  -0.030229
     5  C    0.000129  -0.005894
     6  C   -0.000013  -0.004099
     7  C    0.000030   0.002054
     8  C   -0.000760  -0.002217
     9  O   -0.000042  -0.000178
    10  C    0.012860   0.001808
    11  C   -0.012895   0.007778
    12  C    0.323719   0.005355
    13  O   -0.017774  -0.022343
    14  C    0.000423   0.341745
    15  H   -0.000571  -0.000348
    16  H   -0.000004  -0.000276
    17  H    0.000001   0.003910
    18  H    0.000001  -0.001540
    19  H    0.000000  -0.000053
    20  H   -0.000000   0.000007
    21  H   -0.000001  -0.000035
    22  H   -0.000127  -0.015097
    23  H    0.004072  -0.000549
    24  H   -0.017486  -0.000060
    25  H    0.696658  -0.000445
    26  H   -0.000445   0.721152
 Mulliken charges:
               1
     1  O   -0.189202
     2  C    0.100662
     3  C   -0.016810
     4  C   -0.162096
     5  C    0.186349
     6  C   -0.023551
     7  C    0.108178
     8  C    0.016209
     9  O   -0.181011
    10  C   -0.149603
    11  C    0.203961
    12  C    0.076625
    13  O   -0.336759
    14  C    0.253002
    15  H   -0.021317
    16  H   -0.002443
    17  H    0.025361
    18  H    0.007487
    19  H    0.014900
    20  H    0.027986
    21  H    0.014293
    22  H    0.014074
    23  H    0.030061
    24  H    0.007980
    25  H    0.004507
    26  H   -0.008845
 Sum of Mulliken charges =  -0.00000
 Mulliken charges with hydrogens summed into heavy atoms:
               1
     1  O   -0.189202
     2  C    0.100662
     3  C   -0.038127
     4  C   -0.162096
     5  C    0.209267
     6  C   -0.001163
     7  C    0.150457
     8  C    0.016209
     9  O   -0.181011
    10  C   -0.135528
    11  C    0.242002
    12  C    0.081132
    13  O   -0.336759
    14  C    0.244157
 Electronic spatial extent (au):  <R**2>=           2136.7395
 Charge=             -0.0000 electrons
 Dipole moment (field-independent basis, Debye):
    X=             -4.7846    Y=             -0.8337    Z=              2.8971  Tot=              5.6551
 Quadrupole moment (field-independent basis, Debye-Ang):
   XX=            -82.9992   YY=            -82.2556   ZZ=            -86.7335
   XY=              4.6469   XZ=              3.2960   YZ=              6.3579
 Traceless Quadrupole moment (field-independent basis, Debye-Ang):
   XX=              0.9969   YY=              1.7405   ZZ=             -2.7374
   XY=              4.6469   XZ=              3.2960   YZ=              6.3579
 Octapole moment (field-independent basis, Debye-Ang**2):
  XXX=            -28.8680  YYY=             -4.1830  ZZZ=              1.0268  XYY=              1.4285
  XXY=              7.8948  XXZ=             18.8731  XZZ=            -12.5258  YZZ=             -1.7457
  YYZ=              7.0237  XYZ=             -1.5196
 Hexadecapole moment (field-independent basis, Debye-Ang**3):
 XXXX=          -1546.8483 YYYY=           -724.7180 ZZZZ=           -543.1848 XXXY=              3.2613
 XXXZ=             74.1182 YYYX=              2.9109 YYYZ=             10.3846 ZZZX=             -0.6745
 ZZZY=              7.2078 XXYY=           -359.6537 XXZZ=           -372.8435 YYZZ=           -211.6286
 XXYZ=             -1.0868 YYXZ=            -10.6474 ZZXY=             12.7276
 N-N= 9.564760526227D+02 E-N=-3.430048757051D+03  KE= 6.455554750605D+02
 No NMR shielding tensors so no spin-rotation constants.
 Leave Link  601 at Wed Jan 14 09:38:57 2026, MaxMem=  4294967296 cpu:               0.9 elap:               0.1
 (Enter /root//g16/l701.exe)
 ... and contract with generalized density number  0.
 Compute integral first derivatives.
 R6Disp: Adding Grimme-D3(BJ) dispersion energy 1st derivatives to the gradient.
   1 Symmetry operations used in ECPInt.
 ECPInt:  NShTT=    7260 NPrTT=   26324 LenC2=    7151 LenP2D=   19998.
 LDataN:  DoStor=T MaxTD1= 5 Len=  102
 Leave Link  701 at Wed Jan 14 09:38:57 2026, MaxMem=  4294967296 cpu:               1.2 elap:               0.1
 (Enter /root//g16/l702.exe)
 L702 exits ... SP integral derivatives will be done elsewhere.
 Leave Link  702 at Wed Jan 14 09:38:57 2026, MaxMem=  4294967296 cpu:               0.1 elap:               0.0
 (Enter /root//g16/l703.exe)
 Integral derivatives from FoFJK, PRISM(SPDF).
 Compute integral first derivatives, UseDBF=F ICtDFT=           0.
 Calling FoFJK, ICntrl=      2127 FMM=F ISym2X=0 I1Cent= 0 IOpClX= 0 NMat=1 NMatS=1 NMatT=0.
 FoFJK:  IHMeth= 1 ICntrl=    2127 DoSepK=F KAlg= 0 I1Cent=           0 FoldK=F
 IRaf=         0 NMat=       1 IRICut=       1 DoRegI=T DoRafI=F ISym2E= 0 IDoP0=0 IntGTp=1.
 FoFCou: FMM=F IPFlag=           0 FMFlag=      100000 FMFlg1=         800
         NFxFlg=           0 DoJE=F BraDBF=F KetDBF=F FulRan=T
         wScrn=  0.000000 ICntrl=      2127 IOpCl=  0 I1Cent=           0 NGrid=           0
         NMat0=    1 NMatS0=      1 NMatT0=    0 NMatD0=    1 NMtDS0=    0 NMtDT0=    0
 Symmetry not used in FoFCou.
 Leave Link  703 at Wed Jan 14 09:39:00 2026, MaxMem=  4294967296 cpu:              49.9 elap:               3.1
 (Enter /root//g16/l716.exe)
 Dipole        =-1.88240155D+00-3.27989727D-01 1.13980492D+00
 ***** Axes restored to original set *****
 -------------------------------------------------------------------
 Center     Atomic                   Forces (Hartrees/Bohr)
 Number     Number              X              Y              Z
 -------------------------------------------------------------------
      1        8          -0.000974702   -0.000095328   -0.000322015
      2        6           0.011399048   -0.002418781   -0.000476051
      3        6          -0.000230602    0.004392466    0.000841718
      4        6           0.001741937    0.008136347   -0.006832759
      5        6          -0.001147563   -0.004788273   -0.002118402
      6        6           0.003446825   -0.000647663    0.008434863
      7        6          -0.001751615    0.005016289   -0.000663330
      8        6          -0.001197311   -0.007812894    0.000735354
      9        8          -0.000466572   -0.000949738    0.003320013
     10        6           0.002851087   -0.002554411    0.002850066
     11        6           0.002953689    0.004462081   -0.000529166
     12        6           0.000675216   -0.006228438    0.002804319
     13        8          -0.000641019    0.001410254   -0.003462163
     14        6           0.002660213    0.001120692   -0.000695226
     15        1          -0.001450619    0.004587205    0.008162458
     16        1          -0.001403188    0.003715933    0.005553649
     17        1          -0.000379654    0.006442667   -0.004094909
     18        1          -0.000755315   -0.000262188   -0.007367287
     19        1          -0.006387303    0.002369745   -0.001988117
     20        1          -0.004756574   -0.005137361   -0.001840349
     21        1          -0.001469536   -0.000870247    0.004940140
     22        1          -0.003576103   -0.003366086   -0.004807760
     23        1          -0.000896479   -0.003340512    0.004124774
     24        1           0.001685197   -0.004791369   -0.004180812
     25        1           0.004840751   -0.000036021    0.000827474
     26        1          -0.004769809    0.001645632   -0.003216484
 -------------------------------------------------------------------
 Cartesian Forces:  Max     0.011399048 RMS     0.003873482
 Leave Link  716 at Wed Jan 14 09:39:00 2026, MaxMem=  4294967296 cpu:               0.1 elap:               0.0
 (Enter /root//g16/l103.exe)

 GradGradGradGradGradGradGradGradGradGradGradGradGradGradGradGradGradGrad
 Berny optimization.
 FormGI is forming the generalized inverse of G from B-inverse, IUseBI=4.
 Internal  Forces:  Max     0.012176901 RMS     0.003064020
 Search for a local minimum.
 Step number   1 out of a maximum of  156
 All quantities printed in internal units (Hartrees-Bohrs-Radians)
 RMS Force = .30640D-02 SwitMx=.10000D-02 MixMth= 1
 Mixed Optimization -- RFO/linear search
 Second derivative matrix not updated -- first step.
 ITU=  0
     Eigenvalues ---    0.00466   0.00482   0.00555   0.00744   0.00872
     Eigenvalues ---    0.01410   0.02035   0.02091   0.02205   0.02917
     Eigenvalues ---    0.03210   0.03490   0.03627   0.04455   0.04567
     Eigenvalues ---    0.04751   0.04919   0.05010   0.05131   0.05571
     Eigenvalues ---    0.05678   0.05770   0.06333   0.06658   0.06814
     Eigenvalues ---    0.07328   0.07633   0.08134   0.08414   0.09115
     Eigenvalues ---    0.09661   0.09851   0.10175   0.10825   0.11481
     Eigenvalues ---    0.12679   0.15969   0.16407   0.18633   0.19541
     Eigenvalues ---    0.20610   0.22478   0.24422   0.24897   0.24936
     Eigenvalues ---    0.25717   0.26522   0.27204   0.27974   0.28630
     Eigenvalues ---    0.28882   0.30137   0.30579   0.32629   0.33449
     Eigenvalues ---    0.34312   0.34390   0.34491   0.34568   0.34707
     Eigenvalues ---    0.34724   0.34729   0.34860   0.34897   0.34960
     Eigenvalues ---    0.35015   0.35958   0.38207   0.39218   0.53482
     Eigenvalues ---    0.96941   1.00310
 RFO step:  Lambda=-7.05201313D-03 EMin= 4.65736593D-03
 Linear search not attempted -- first point.
 Iteration  1 RMS(Cart)=  0.03839437 RMS(Int)=  0.00057146
 Iteration  2 RMS(Cart)=  0.00076121 RMS(Int)=  0.00018429
 Iteration  3 RMS(Cart)=  0.00000072 RMS(Int)=  0.00018429
 ITry= 1 IFail=0 DXMaxC= 1.92D-01 DCOld= 1.00D+10 DXMaxT= 3.00D-01 DXLimC= 3.00D+00 Rises=F
 Variable       Old X    -DE/DX   Delta X   Delta X   Delta X     New X
                                 (Linear)    (Quad)   (Total)
    R1        2.29889  -0.00091   0.00000  -0.00093  -0.00093   2.29796
    R2        2.76117   0.01218   0.00000   0.03261   0.03256   2.79373
    R3        2.88842   0.00424   0.00000   0.01425   0.01420   2.90263
    R4        2.53469   0.01016   0.00000   0.01764   0.01765   2.55234
    R5        2.04148   0.00936   0.00000   0.02554   0.02554   2.06701
    R6        2.81718   0.00708   0.00000   0.02206   0.02208   2.83926
    R7        2.84439   0.00592   0.00000   0.01966   0.01984   2.86423
    R8        2.89923   0.00738   0.00000   0.02290   0.02288   2.92210
    R9        2.06152   0.00666   0.00000   0.01881   0.01881   2.08034
   R10        2.06677   0.00758   0.00000   0.02159   0.02159   2.08835
   R11        2.88916   0.00752   0.00000   0.02226   0.02235   2.91151
   R12        2.05902   0.00714   0.00000   0.02008   0.02008   2.07911
   R13        2.06126   0.00646   0.00000   0.01823   0.01823   2.07948
   R14        2.86085   0.00858   0.00000   0.02567   0.02567   2.88652
   R15        2.06807   0.00717   0.00000   0.02047   0.02047   2.08854
   R16        2.06509   0.00487   0.00000   0.01384   0.01384   2.07893
   R17        2.28515   0.00319   0.00000   0.00315   0.00315   2.28830
   R18        2.89054   0.00797   0.00000   0.02631   0.02618   2.91672
   R19        2.90207   0.00641   0.00000   0.01976   0.01989   2.92196
   R20        2.95740   0.00869   0.00000   0.03703   0.03709   2.99449
   R21        2.06382   0.00683   0.00000   0.01935   0.01935   2.08317
   R22        2.92452   0.00466   0.00000   0.01355   0.01349   2.93801
   R23        2.05842   0.00494   0.00000   0.01387   0.01387   2.07230
   R24        2.05650   0.00657   0.00000   0.01840   0.01840   2.07490
   R25        2.66734   0.00604   0.00000   0.01480   0.01469   2.68203
   R26        2.06116   0.00437   0.00000   0.01235   0.01235   2.07351
   R27        2.65629   0.00348   0.00000   0.00836   0.00827   2.66456
   R28        2.05739   0.00547   0.00000   0.01534   0.01534   2.07273
    A1        2.16121  -0.00072   0.00000  -0.00515  -0.00529   2.15593
    A2        2.13081  -0.00027   0.00000  -0.00316  -0.00328   2.12753
    A3        1.98951   0.00095   0.00000   0.00720   0.00726   1.99677
    A4        2.10106  -0.00219   0.00000  -0.00591  -0.00597   2.09510
    A5        2.04401   0.00112   0.00000   0.00259   0.00227   2.04628
    A6        2.13675   0.00101   0.00000   0.00137   0.00105   2.13780
    A7        2.19574   0.00175   0.00000   0.00220   0.00170   2.19744
    A8        2.04582  -0.00050   0.00000  -0.00321  -0.00326   2.04256
    A9        2.03603  -0.00141   0.00000  -0.00340  -0.00374   2.03229
   A10        1.92193  -0.00010   0.00000   0.01759   0.01716   1.93910
   A11        1.91679  -0.00016   0.00000   0.00358   0.00353   1.92032
   A12        1.90511   0.00076   0.00000  -0.00303  -0.00283   1.90228
   A13        1.93036   0.00034   0.00000   0.00155   0.00157   1.93193
   A14        1.90335  -0.00009   0.00000  -0.00706  -0.00702   1.89633
   A15        1.88573  -0.00075   0.00000  -0.01339  -0.01346   1.87227
   A16        1.94762   0.00594   0.00000   0.04094   0.04080   1.98843
   A17        1.92443  -0.00234   0.00000  -0.01518  -0.01538   1.90904
   A18        1.90197  -0.00088   0.00000   0.00270   0.00231   1.90428
   A19        1.92300  -0.00176   0.00000  -0.00479  -0.00478   1.91821
   A20        1.89189  -0.00080   0.00000   0.00068   0.00026   1.89216
   A21        1.87297  -0.00037   0.00000  -0.02667  -0.02675   1.84622
   A22        2.04894  -0.00082   0.00000   0.01233   0.01189   2.06083
   A23        1.90746   0.00027   0.00000  -0.00276  -0.00278   1.90468
   A24        1.92174   0.00195   0.00000   0.01360   0.01387   1.93562
   A25        1.85527   0.00018   0.00000  -0.00638  -0.00618   1.84909
   A26        1.85390  -0.00085   0.00000  -0.00877  -0.00888   1.84501
   A27        1.86758  -0.00085   0.00000  -0.01081  -0.01090   1.85669
   A28        2.09457  -0.00125   0.00000  -0.00918  -0.00934   2.08523
   A29        2.07383  -0.00053   0.00000   0.00901   0.00802   2.08185
   A30        2.11293   0.00186   0.00000   0.00329   0.00314   2.11606
   A31        1.95057   0.00160   0.00000   0.01651   0.01657   1.96714
   A32        1.96122   0.00076   0.00000   0.02760   0.02696   1.98819
   A33        1.88876  -0.00147   0.00000  -0.02000  -0.01967   1.86909
   A34        1.77748  -0.00083   0.00000  -0.00549  -0.00562   1.77186
   A35        1.95314   0.00090   0.00000  -0.00036  -0.00057   1.95257
   A36        1.93236  -0.00085   0.00000  -0.01669  -0.01651   1.91585
   A37        1.79511   0.00136   0.00000   0.00570   0.00562   1.80073
   A38        1.94762  -0.00137   0.00000  -0.00201  -0.00212   1.94551
   A39        1.94401  -0.00006   0.00000  -0.00867  -0.00880   1.93521
   A40        1.95504   0.00116   0.00000   0.02214   0.02204   1.97708
   A41        1.91009  -0.00094   0.00000  -0.01036  -0.01025   1.89984
   A42        1.90987  -0.00008   0.00000  -0.00619  -0.00617   1.90370
   A43        1.91057   0.00548   0.00000   0.03149   0.03131   1.94188
   A44        1.92719  -0.00207   0.00000  -0.01436  -0.01422   1.91297
   A45        1.92868  -0.00242   0.00000  -0.01825  -0.01840   1.91028
   A46        1.80711  -0.00211   0.00000  -0.00893  -0.00881   1.79831
   A47        1.98051  -0.00067   0.00000   0.00185   0.00206   1.98256
   A48        1.90634   0.00176   0.00000   0.00832   0.00815   1.91449
   A49        1.80479   0.00203   0.00000   0.00605   0.00588   1.81067
   A50        1.82729   0.00479   0.00000   0.04123   0.04109   1.86838
   A51        1.93517  -0.00040   0.00000  -0.00360  -0.00349   1.93167
   A52        1.97768  -0.00209   0.00000  -0.01833  -0.01815   1.95953
   A53        1.84863  -0.00184   0.00000  -0.01324  -0.01319   1.83544
   A54        2.00390  -0.00234   0.00000  -0.01683  -0.01674   1.98716
   A55        1.86789   0.00180   0.00000   0.01048   0.01025   1.87815
    D1       -3.04062   0.00024   0.00000   0.01880   0.01893  -3.02169
    D2        0.04618  -0.00104   0.00000  -0.02013  -0.02010   0.02609
    D3        0.04033  -0.00042   0.00000  -0.00175  -0.00170   0.03863
[...]
 -0.25586484,0.10624576,0.02956992,0.00135982,-0.00074873,-0.00031390,0
 .00103586,-0.00064769,0.00026060,0.00007706,0.00001849,0.00007186,0.00
 014261,-0.00025861,-0.00003446,0.00002194,0.00000722,-0.00002502,-0.00
 002108,-0.00013968,0.00004465,-0.00001702,0.00019085,0.00013448,0.0003
 6212,-0.00040311,-0.00025670,-0.00008717,-0.00010925,0.00006533,0.0008
 8615,0.00030928,-0.00037616,0.00054714,0.00005949,0.00042146,-0.001517
 99,0.00069110,0.00071350,0.27496169,-0.00042143,0.00017227,0.00000944,
 0.00062093,-0.00028177,-0.00065418,-0.00103386,0.00128645,0.00006580,-
 0.00257002,-0.00351974,-0.00122328,-0.02145679,0.00920422,0.00322332,0
 .10693092,-0.09898827,-0.01506238,0.02447448,-0.01420478,-0.00333336,-
 0.00478275,-0.00188726,0.00243464,0.00250200,-0.00137143,0.00155713,0.
 00020655,0.00042533,-0.00005959,-0.00006023,0.00007677,-0.00006347,-0.
 00006296,-0.00012653,-0.00001843,0.00022315,0.00034712,0.00016873,-0.0
 0005895,-0.00061775,-0.00043801,-0.00006250,-0.00012891,0.00008304,0.0
 0051622,0.00087299,0.00008055,0.00062971,0.00080370,0.00034352,0.00618
 048,-0.00354929,-0.00100685,-0.11155896,0.10969281,-0.00011491,0.00004
 106,0.00008088,0.00024407,-0.00001863,-0.00032019,-0.00028383,0.000478
 28,0.00010491,-0.00107197,-0.00203893,-0.00011364,-0.00936337,0.003025
 49,0.00032277,0.03139985,-0.01578035,-0.04952142,-0.01800571,0.0110790
 5,0.00121262,0.00266942,0.00223757,-0.00116112,-0.00159577,0.00078317,
 -0.00104113,-0.00027781,-0.00006142,-0.00017823,-0.00008520,-0.0000802
 6,0.00015928,0.00002924,0.00012592,-0.00017209,0.00035718,-0.00021384,
 0.00055361,-0.00008212,0.00041468,-0.00080687,-0.00003406,-0.00004839,
 0.00005319,-0.00016285,0.00056261,0.00043002,0.00056580,0.00002613,0.0
 0001757,0.02707869,-0.01365293,-0.00369849,-0.03115728,0.01425988,0.05
 241943,-0.00003091,0.00003001,0.00001423,0.00008235,-0.00007174,-0.000
 04361,0.00007693,0.00003082,0.00010414,0.00016849,0.00015571,-0.000013
 72,0.00079661,0.00032329,0.00010081,0.00107129,0.00120679,0.00109219,-
 0.16475884,-0.11637377,-0.06740147,-0.02074537,-0.01843114,-0.01313081
 ,0.00115100,0.00328012,0.00200351,0.00095996,0.00240629,0.00123693,-0.
 00011573,0.00050743,0.00015533,0.00012112,0.00005132,-0.00002375,0.000
 15938,0.00006900,0.00003190,0.00040358,-0.00012551,-0.00054642,-0.0000
 0723,0.00000200,0.00000076,-0.00008049,-0.00008991,-0.00006140,0.00005
 802,-0.00004896,-0.00019411,0.00027054,-0.00016693,0.00013952,0.000398
 02,-0.00009355,0.00034437,0.17431624,-0.00017042,0.00010589,-0.0000596
 2,0.00026595,-0.00025218,-0.00007218,-0.00036418,0.00032019,-0.0001266
 7,0.00133091,-0.00025491,0.00009916,0.00120977,-0.00348755,0.00431046,
 -0.01888361,-0.01717895,-0.00987946,-0.10802071,-0.14589584,-0.0614103
 7,0.00961125,0.01140743,0.00777853,0.00012069,-0.00259540,-0.00010795,
 -0.00104037,-0.00136420,-0.00143827,0.00000998,-0.00015128,0.00010251,
 -0.00005256,-0.00011064,0.00003559,-0.00009841,0.00017930,0.00006120,-
 0.00017472,-0.00016793,0.00013325,0.00001230,-0.00000952,0.00003349,0.
 00020559,0.00028209,0.00001803,-0.00132736,-0.00100412,-0.00018863,-0.
 00009159,0.00140955,0.00014073,0.00031592,0.00041420,-0.00062349,0.121
 02325,0.16268461,0.00000887,-0.00001537,0.00000178,-0.00000445,0.00003
 661,0.00003622,0.00006681,-0.00014047,0.00009084,-0.00062891,0.0000414
 8,-0.00023717,-0.00031088,0.00289803,-0.00164012,0.01419652,0.01359009
 ,0.00558898,-0.06550873,-0.06392386,-0.07663943,-0.00012594,0.00031333
 ,-0.00187854,-0.00059157,0.00191721,0.00086295,-0.00051540,-0.00053312
 ,-0.00085680,-0.00002466,-0.00011516,0.00001807,-0.00003343,0.00005486
 ,-0.00002176,-0.00000788,-0.00004594,-0.00002499,0.00006819,0.00005182
 ,0.00025095,0.00001824,0.00003725,-0.00000487,0.00006179,0.00030900,0.
 00009278,0.00052250,0.00074897,0.00021476,0.00059102,-0.00030286,0.001
 03812,-0.00016726,-0.00065520,0.00040455,0.07221287,0.06364373,0.08245
 377,0.00006758,-0.00008547,-0.00008956,-0.00019448,0.00022373,0.000198
 31,0.00012591,-0.00000669,-0.00013935,-0.00001432,0.00019033,0.0001315
 8,-0.00006442,0.00038782,0.00050581,-0.00046679,0.00034031,-0.00181571
 ,-0.06128941,0.01438822,0.06766495,-0.01411900,0.00946866,0.03070113,0
 .00284793,-0.00389539,-0.00077185,-0.00401706,0.00216526,-0.00277718,-
 0.00041961,-0.00002839,0.00110459,-0.00014444,0.00020869,-0.00004604,-
 0.00002144,-0.00021787,-0.00001973,0.00027942,0.00032874,-0.00022303,-
 0.00003061,-0.00005663,-0.00004386,0.00006021,-0.00018246,0.00000576,0
 .00001835,-0.00004514,-0.00019772,0.00089358,0.00068888,-0.00038403,0.
 00044300,-0.00016979,-0.00057969,0.00644077,-0.00441471,-0.02026206,0.
 06954184,-0.00000688,0.00003459,0.00004950,0.00004308,-0.00011410,-0.0
 0014150,-0.00011632,0.00007090,0.00004621,0.00004061,-0.00002810,-0.00
 013040,0.00041584,0.00157240,0.00035328,-0.00698137,0.00571400,0.02732
 972,0.01500560,-0.05793504,-0.04946467,0.00270402,-0.00300887,-0.01606
 353,-0.00021988,0.00001245,0.00156703,0.00190790,-0.00057815,0.0015138
 4,0.00019114,0.00034744,-0.00047306,0.00015239,-0.00012586,0.00006001,
 0.00001133,0.00017067,-0.00012720,0.00018761,-0.00027388,0.00034050,-0
 .00002073,-0.00000246,0.00000292,-0.00008250,-0.00023894,-0.00052497,0
 .00025857,0.00002514,-0.00030172,-0.00027798,-0.00450120,0.00340738,-0
 .00003735,0.00125548,-0.00043336,0.00609821,-0.00447249,-0.01784752,-0
 .01915413,0.06190414,0.00004017,0.00001104,0.00005840,-0.00001551,-0.0
 0001935,-0.00004112,0.00001657,-0.00009781,0.00008192,-0.00004465,0.00
 002987,-0.00011103,-0.00020025,-0.00064050,0.00071032,0.00273863,-0.00
 253271,-0.01476624,0.06990554,-0.05151725,-0.28578288,-0.00031601,0.00
 134525,-0.00050330,-0.00209780,0.00110725,0.00176687,-0.00009017,0.000
 14658,0.00059293,-0.00023920,0.00002175,-0.00009082,-0.00004434,0.0000
 4265,-0.00006254,0.00019229,0.00001997,0.00011324,-0.00022519,-0.00007
 988,-0.00012701,0.00002692,0.00002951,0.00001394,0.00045653,0.00047306
 ,0.00018875,-0.00011169,0.00005975,0.00021054,0.00005864,0.00306832,-0
 .00033583,-0.00027547,0.00007207,0.00063202,0.00324543,-0.00221746,-0.
 00961692,-0.07287662,0.05069840,0.30679346,0.00004096,-0.00027304,-0.0
 0035190,-0.00046450,0.00094201,0.00070175,0.00045781,0.00010483,-0.000
 00404,0.00043686,-0.00032606,0.00032603,0.00000452,-0.00023973,-0.0001
 6385,0.00018107,-0.00003992,0.00013350,-0.00186064,-0.00207371,-0.0019
 3801,0.01188147,0.01193264,0.01319219,-0.00234097,-0.00265721,0.001166
 32,-0.08469480,-0.05686679,-0.07135155,-0.01178742,-0.01293592,-0.0172
 6553,-0.00315500,0.00167267,-0.00221795,0.00072187,0.00021858,0.000993
 58,-0.00117758,-0.00165584,-0.00496959,-0.00001670,-0.00011831,0.00003
 024,0.00004514,-0.00004450,-0.00001246,0.00004085,0.00000300,0.0000011
 0,-0.00003250,0.00012360,-0.00010679,-0.00000228,0.00001789,-0.0000119
 1,-0.00072368,0.00057912,0.00037160,0.00044922,-0.00027348,-0.00017316
 ,0.09324656,-0.00069810,0.00044280,-0.00012696,0.00125261,-0.00138435,
 -0.00022389,-0.00062917,-0.00006670,-0.00010975,-0.00182312,-0.0034092
 9,0.00289466,-0.00027722,0.00010434,-0.00032411,-0.00012264,-0.0002152
 6,-0.00037705,0.00002858,0.00008905,-0.00009386,0.00042277,0.00108212,
 0.00003266,-0.00057066,-0.00142671,0.00030337,-0.06153614,-0.12055496,
 -0.10935706,0.00805718,0.00748821,0.00951963,0.00079918,-0.00160841,0.
 00120496,-0.00006820,0.00157730,0.00040281,-0.00931626,-0.02020119,-0.
 01943936,0.00016779,0.00046906,-0.00033857,0.00017513,0.00002617,-0.00
 002101,0.00001783,0.00001474,0.00003072,0.00010399,-0.00012459,0.00025
 099,0.00004329,0.00012185,0.00014826,0.00017408,0.00015538,-0.00007393
 ,0.00002639,0.00003478,0.00003142,0.06253110,0.13486725,0.00020982,-0.
 00016140,0.00011110,-0.00013831,0.00058480,-0.00011806,0.00054533,-0.0
 0014588,0.00066708,0.00047313,0.00120293,-0.00089530,-0.00001652,-0.00
 006371,0.00016095,-0.00013769,-0.00002122,-0.00005844,0.00130678,0.001
 48128,0.00114227,-0.01197250,-0.01371602,-0.01965660,0.00393528,0.0026
 0117,-0.00043043,-0.07916687,-0.11398472,-0.18492837,-0.00194922,-0.00
 343823,-0.00314471,0.00011819,0.00114217,-0.00022163,-0.00044045,-0.00
 063183,-0.00024632,0.00497781,0.01049221,0.00947776,-0.00004248,-0.000
 17475,0.00014272,-0.00003178,-0.00000060,0.00002172,0.00006662,-0.0000
 2436,-0.00002079,0.00003426,-0.00016406,0.00004207,-0.00000518,-0.0000
 0375,-0.00002180,0.00077370,-0.00021612,-0.00008146,-0.00007940,0.0003
 4881,0.00009087,0.08142144,0.11485762,0.19599576,-0.00044189,0.0007191
 9,-0.00035352,0.00188862,-0.00039750,0.00052378,-0.00048517,0.00006951
 ,0.00014839,0.00021646,-0.00003194,-0.00019610,0.00006558,0.00000290,-
 0.00002116,0.00025892,0.00005462,-0.00025637,0.00059220,-0.00048919,0.
 00032679,-0.00060012,0.00223272,-0.00328096,-0.00021211,-0.00130733,0.
 00249605,0.00049703,0.00911082,-0.02498628,-0.04392007,-0.00115442,0.0
 0028205,0.00177477,-0.00231534,0.01693419,-0.00079235,-0.00445999,0.00
 171567,-0.00405899,0.00094826,-0.00105355,-0.00000069,-0.00006648,0.00
 008948,-0.00000787,0.00001445,0.00001927,-0.00005512,-0.00003823,0.000
 00368,0.00002768,-0.00003191,0.00010732,-0.00001784,-0.00013202,0.0001
 1064,0.00011624,-0.00007278,0.00004423,-0.00002986,-0.00001511,0.00003
 429,-0.00234331,0.00106337,-0.00052517,0.04777440,-0.00033800,0.000534
 71,-0.00086371,0.00108982,-0.00030723,0.00192115,-0.00054112,-0.000088
 12,-0.00025817,0.00022128,0.00035701,0.00060835,-0.00004798,0.00000909
 ,-0.00014954,-0.00003776,0.00003772,0.00007001,0.00009586,0.00022380,0
 .00025041,0.00031764,0.00015638,0.00228088,-0.00171820,-0.00055870,-0.
 00088747,0.00057638,-0.00317975,0.00626362,-0.00046964,-0.07655531,0.0
 8061000,0.00382094,-0.00430574,0.01879029,0.00047459,-0.00652086,0.003
 91034,-0.00149029,-0.00137436,0.00155828,-0.00002427,-0.00001778,0.000
 00126,0.00002749,-0.00002873,-0.00001437,-0.00006194,0.00003541,-0.000
 00730,-0.00002788,-0.00000093,-0.00003836,-0.00001559,0.00001339,-0.00
 003547,0.00003185,-0.00001502,-0.00000632,-0.00004435,0.00003650,-0.00
 002208,0.00007080,-0.00023880,0.00017214,-0.00097416,0.08305948,0.0004
 9850,-0.00026917,0.00033294,-0.00078698,-0.00023740,-0.00007863,0.0001
 5129,-0.00012148,0.00008692,-0.00005619,-0.00000945,-0.00008111,-0.000
 00296,-0.00004519,0.00002105,-0.00016277,-0.00003011,0.00009412,-0.000
 08559,0.00030077,-0.00007012,0.00163467,0.00114531,-0.00221884,0.00393
 220,-0.00199877,-0.00066401,-0.00368770,0.00166536,-0.00334997,-0.0019
 9000,0.08524709,-0.29717246,0.00027897,0.00034542,0.00143857,0.0000340
 5,-0.00111773,0.00156472,0.00022098,-0.00062612,-0.00045714,0.00001099
 ,0.00000783,-0.00001800,0.00000630,-0.00000266,-0.00000241,0.00002720,
 0.00000078,-0.00000874,0.00001879,-0.00001579,-0.00000069,0.00001267,0
 .00006793,-0.00002834,-0.00000309,0.00000363,-0.00003738,-0.00000738,-
 0.00000172,0.00004361,-0.00042254,0.00061610,-0.00030567,0.00053845,-0
 .09165065,0.31555668,-0.00025156,0.00006833,-0.00143966,-0.00208457,-0
 .00175783,0.00402402,0.00104217,-0.00011415,-0.00050569,-0.00026359,-0
 .00061405,-0.00081660,0.00000513,-0.00022659,0.00015926,0.00005026,-0.
 00026035,0.00003258,-0.00060611,-0.00031767,0.00097933,-0.00303296,0.0
 0286581,-0.00254054,0.00033493,-0.00018161,0.00021651,-0.01083282,0.02
 052870,0.01599109,-0.06369966,0.05987226,0.05001551,0.00243144,-0.0207
 5833,-0.01506127,0.00131753,0.00161475,0.00045780,-0.00280470,0.000109
 77,0.00014098,0.00021798,-0.00005839,-0.00009595,-0.00001063,0.0000049
 0,0.00001967,0.00011280,-0.00003233,0.00000084,0.00004054,0.00002639,-
 0.00000361,0.00002043,0.00006710,0.00000404,-0.00012792,0.00004630,0.0
 0000878,-0.00033339,0.00010804,0.00003503,0.00103449,-0.00032027,0.000
 59377,-0.00001287,-0.00028705,-0.00028599,0.07645993,-0.00029541,-0.00
 001596,-0.00168736,-0.00278318,-0.00089106,0.00432029,0.00058014,0.000
 39503,-0.00039434,-0.00018840,0.00024909,0.00013709,-0.00000061,-0.000
 14163,0.00021908,-0.00006042,0.00002252,-0.00004644,-0.00000870,0.0000
 6648,-0.00026161,0.00020142,-0.00059623,0.00140628,-0.00055445,0.00001
 512,-0.00038475,0.00160052,-0.00430892,-0.00425957,0.06077643,-0.19340
 194,-0.12342451,0.00404579,-0.02159593,-0.01696535,0.00006385,0.002676
 42,0.00119496,0.00113176,-0.00074079,-0.00008291,0.00010631,-0.0000430
 3,-0.00004794,-0.00000732,0.00001917,0.00000107,0.00008499,-0.00000864
 ,-0.00001823,-0.00000614,0.00000032,0.00001005,0.00001312,0.00001447,-
 0.00000750,-0.00000083,0.00002084,0.00000484,0.00006543,-0.00002008,0.
 00000223,-0.00038560,0.00103547,0.00037518,-0.00330141,0.00955709,0.00
 623575,-0.06122542,0.20641851,0.00031773,-0.00034352,0.00044354,-0.000
 51911,0.00117661,-0.00028164,0.00013405,-0.00036290,0.00030999,-0.0001
 4039,-0.00016798,-0.00056867,-0.00001010,0.00000171,-0.00000401,0.0000
 6888,-0.00008928,0.00000356,-0.00029440,-0.00023194,0.00017050,-0.0008
 7959,0.00137929,-0.00167134,0.00148164,-0.00017838,0.00083729,-0.00526
 244,0.00868763,0.00549569,0.05063577,-0.12609551,-0.15205330,-0.001629
 98,0.00514170,0.00269064,0.00101912,-0.00066112,0.00066954,-0.00125841
 ,0.00069317,-0.00012175,0.00002633,0.00004789,-0.00003246,0.00000063,-
 0.00000419,-0.00000044,0.00001003,-0.00001453,0.00001714,0.00000095,0.
 00000658,0.00000261,0.00001518,-0.00001537,0.00001704,-0.00004270,0.00
 000099,0.00001271,-0.00006435,-0.00000122,0.00002779,-0.00011035,0.000
 39742,0.00122776,0.00772239,-0.02265529,-0.01461843,-0.05092557,0.1333
 1038,0.15691054,0.00191281,-0.00080365,0.00044065,-0.00100599,-0.00013
 579,-0.00149712,0.00056658,-0.00033617,-0.00011498,-0.00008782,-0.0001
 5509,-0.00021935,-0.00006410,-0.00007865,0.00020057,-0.00001613,-0.000
 00530,-0.00002584,-0.00001167,0.00005296,0.00010223,0.00001294,-0.0001
 2110,-0.00044103,-0.00008826,-0.00001392,0.00024382,-0.00068588,-0.000
 97289,0.00029927,-0.00999418,0.00316625,0.00341443,-0.29329044,0.06362
 030,0.06323886,-0.01154493,0.00342905,-0.00236732,0.00126484,0.0011357
 4,-0.00172368,0.00005940,-0.00006437,0.00004409,-0.00004127,0.00002568
 ,0.00003034,0.00004107,-0.00001911,-0.00000994,0.00002278,0.00000048,0
 .00003407,-0.00001105,0.00001385,0.00000565,0.00000598,-0.00000367,-0.
 00000866,-0.00002369,0.00002407,0.00000560,-0.00029853,0.00004758,-0.0
 0004977,-0.00066250,-0.00059988,0.00002473,0.00085244,0.00020653,-0.00
 034296,0.31356481,-0.00211005,0.00107507,0.00299726,0.02136774,-0.0056
 7810,-0.00735352,-0.00085996,-0.00189599,-0.00273277,-0.00020950,0.000
 48061,-0.00015226,0.00001289,0.00007261,-0.00004567,0.00002179,-0.0001
 0298,0.00008793,-0.00009620,0.00005112,0.00034889,-0.00026866,0.000154
 24,-0.00072786,-0.00015320,0.00001474,0.00012576,-0.00305709,-0.003062
 96,0.00105782,-0.02336850,0.00712131,0.00416779,0.05996853,-0.06047301
 ,-0.01611880,0.01742040,-0.00478852,-0.00006622,-0.00089056,-0.0019310
 4,0.00269226,0.00051832,-0.00077680,0.00015074,-0.00001129,-0.00001839
 ,-0.00000863,0.00001995,0.00000643,0.00001989,0.00001439,-0.00000545,-
 0.00004519,0.00001999,0.00003059,-0.00003010,0.00002152,0.00001110,-0.
 00001399,-0.00010169,0.00007647,-0.00000068,-0.00068714,0.00020623,-0.
 00017812,-0.00011971,-0.00039892,0.00030698,0.00044049,0.00150691,-0.0
 0013860,-0.06858747,0.06818846,-0.00215071,0.00163439,0.00252786,0.025
 24465,-0.00680449,-0.00385370,-0.00103777,-0.00285585,-0.00318426,-0.0
 0086778,0.00005542,-0.00051685,0.00007316,0.00014429,0.00023172,-0.000
 04773,-0.00002692,-0.00009086,0.00002672,0.00003739,-0.00006170,-0.000
 01230,-0.00023885,-0.00003035,-0.00000509,0.00005031,0.00009792,-0.000
 25501,0.00155138,-0.00018164,0.00430253,-0.00302476,0.00083096,0.07245
 077,-0.01780645,-0.06668881,-0.03283727,0.00870969,0.00434696,-0.00199
 020,0.00308296,-0.00437845,0.00082484,-0.00086760,0.00021893,-0.000095
 93,0.00005856,0.00003295,0.00004556,-0.00004425,-0.00000976,0.00004567
 ,0.00002796,0.00009270,0.00001101,0.00002566,0.00006146,0.00000068,0.0
 0000285,0.00000438,0.00001247,-0.00002254,0.00001141,0.00027178,-0.000
 02258,0.00002039,-0.00022672,0.00006445,-0.00000477,-0.00093610,0.0002
 4325,0.00055142,-0.06147134,0.01592014,0.06963348,0.00009459,-0.000636
 58,-0.00056518,-0.00073957,0.00134608,0.00086061,0.00093864,0.00097428
 ,0.00084873,0.00369791,-0.00244938,0.00116805,-0.00027402,-0.00029741,
 0.00041643,-0.00170926,0.00044568,0.00130462,-0.00002484,-0.00010454,-
 0.00005294,0.00007525,-0.00040821,0.00020656,-0.00004037,0.00010069,0.
 00019014,0.00607561,-0.00276485,0.00614577,-0.00080908,-0.00146331,0.0
 0103790,-0.00518719,-0.00220000,0.00278119,-0.02911465,0.01280571,-0.0
 2585902,-0.11054488,0.03124169,-0.10920028,0.00036545,0.00018880,-0.00
 001927,-0.00000172,-0.00015360,-0.00009925,0.00016317,-0.00005381,-0.0
 0005324,-0.00180200,0.00029405,0.00118427,0.00006101,0.00008053,0.0000
 1750,-0.00000635,-0.00001595,0.00001840,0.00000070,0.00003732,-0.00004
 561,0.00035709,0.00045090,0.00009919,0.00042884,-0.00004855,0.00010140
 ,0.00014071,-0.00005841,0.00004766,-0.00047722,0.00069500,-0.00137589,
 0.13833219,-0.00028833,0.00025728,0.00022384,0.00109979,-0.00017658,-0
 .00028344,0.00151733,-0.00265001,-0.00219088,-0.01179289,0.00580110,-0
 .02071920,-0.00050446,0.00091816,0.00045114,0.00072801,0.00010744,0.00
 022950,-0.00019825,-0.00001035,0.00026133,0.00120453,-0.00202254,-0.00
 044887,-0.00057109,0.00025180,0.00120851,0.01167100,-0.00537475,0.0196
 3651,-0.00009122,-0.00246598,0.00181490,0.00033886,-0.00050659,0.00072
 701,0.00145605,0.00026682,0.00076477,0.03306554,-0.06143725,0.05198204
 ,-0.00120823,-0.00071266,-0.00017910,-0.00026735,-0.00007822,0.0002221
 5,0.00008645,-0.00035064,0.00014520,0.00017794,0.00040774,-0.00047899,
 0.00002305,-0.00005591,-0.00015742,-0.00000935,-0.00003054,0.00002650,
 -0.00007975,0.00004425,-0.00003143,0.00038102,0.00151553,-0.00033352,0
 .00069169,-0.00043035,0.00018328,0.00040121,-0.00023324,0.00011647,0.0
 0017456,0.00013627,0.00010559,-0.03800612,0.06682922,-0.00046531,0.000
 29295,-0.00010777,0.00149465,-0.00039820,0.00008533,0.00192987,-0.0024
 8546,-0.00225399,-0.01182319,0.00510947,-0.01791027,-0.00101251,-0.000
 04011,0.00037097,-0.00067575,-0.00000349,-0.00075431,0.00010393,0.0002
 5487,-0.00002332,-0.00111478,0.00094665,0.00032009,0.00051300,-0.00031
 060,-0.00020710,-0.00332200,0.00058533,-0.00408424,0.00066632,0.000346
 29,-0.00014056,0.00252887,-0.00057299,0.00059402,0.00627186,-0.0027359
 0,0.01272528,-0.11663866,0.05349121,-0.24166609,-0.00117004,-0.0006854
 5,-0.00005892,0.00000519,0.00000989,0.00021865,0.00046919,-0.00052509,
 -0.00011543,0.00099444,0.00030040,0.00111782,-0.00006770,0.00014214,0.
 00059396,0.00000470,-0.00002393,-0.00003143,0.00005295,-0.00018421,0.0
 0010162,0.00049011,-0.00018249,0.00102916,-0.00019686,0.00008756,-0.00
 002190,-0.00006824,0.00012009,-0.00003571,0.00018769,-0.00026304,0.000
 33861,0.12084225,-0.05327588,0.24991554\\0.00001006,0.00000743,0.00000
 978,-0.00001686,-0.00000003,-0.00000856,0.00001995,-0.00000951,-0.0000
 0753,-0.00001092,0.00001733,-0.00000093,0.00001225,0.00000165,0.000001
 12,-0.00002395,0.00001288,-0.00002421,0.00002092,-0.00001564,0.0000136
 6,-0.00002662,-0.00001297,0.00000902,0.00001161,-0.00000068,-0.0000124
 7,0.00000624,0.00002036,-0.00000353,0.00000921,0.00000674,0.00000038,0
 .00002137,0.00000016,0.00001912,-0.00001936,0.00000091,0.00000874,-0.0
 0000327,-0.00000806,-0.00001346,-0.00000919,0.00000156,0.00000818,-0.0
 0000483,-0.00000788,0.00000298,0.00000532,0.00000290,-0.00000332,0.000
 00519,0.,0.00000104,0.00000062,-0.00000147,0.00000475,-0.00000331,-0.0
 0000926,-0.00000450,-0.00000144,0.00000400,-0.00000391,-0.00000187,-0.
 00000534,-0.00000133,-0.00000038,0.00000037,0.00000429,0.00000234,-0.0
 0000327,0.00000094,0.00000135,-0.00000303,0.00000083,-0.00000439,0.000
 00086,-0.00000109\\\@


 SACRED COWS MAKE GREAT HAMBURGERS -- ROBERT REISNER
 Job cpu time:       0 days  0 hours 25 minutes 16.6 seconds.
 Elapsed time:       0 days  0 hours  1 minutes 35.1 seconds.
 File lengths (MBytes):  RWF=    198 Int=      0 D2E=      0 Chk=      7 Scr=      1
 Normal termination of Gaussian 16 at Wed Jan 14 09:42:35 2026.
