26
 energy: -41.810289807720 gnorm: 0.000419220471 xtb: 6.7.1 (edcfbbe)
O            2.80437086034047       -0.77183925955254       -1.56940132135268
C            2.01339386608388       -0.73941722706621       -0.61954802071431
C            0.71146367325427       -1.37194865030693       -0.60759578120574
C           -0.12688829286257       -1.29797099627018        0.47840514259583
C           -1.50141102911837       -1.90258188270287        0.46993673373840
C           -2.46787797558874       -1.09628897330518       -0.40915950647248
C           -2.50249229673846        0.38500496696667       -0.01639759735412
C           -1.32718974286123        1.13233875194670       -0.62009410345848
O           -1.06503029135337        1.05069367045268       -1.80285583471351
C           -0.53364301256774        1.96689214129519        0.30792729539288
C            0.64965230851864        2.45831757608858       -0.04632801094696
C            2.30548352849012       -0.05977843904540        0.61636370889052
O            1.50260674076484       -0.04236436513296        1.64349788603938
C            0.32277255794971       -0.60990919289428        1.60865434324553
H            0.41447137535070       -1.90341319950246       -1.49939975342210
H           -1.44760815079644       -2.92120599684476        0.08298379434500
H           -1.88663042943285       -1.94089922242539        1.48996973926186
H           -3.46446003769125       -1.52859686032093       -0.31412465710087
H           -2.16428070185285       -1.16363189819907       -1.45528174132629
H           -2.52960494227640        0.49799562184341        1.06669656603802
H           -3.40502051008493        0.83730120875801       -0.43548942807661
H           -0.95162444913059        2.14855263744173        1.28749977224197
H            1.04741165593007        2.25862198259607       -1.02896261844941
H            1.24852375516743        3.06032121434462        0.61563472699253
H            3.24488740492921        0.45167490105862        0.76940770860838
H           -0.23530286442376       -0.51828550922318        2.52687895720444
