 Entering Gaussian System, Link 0=g16
 Initial command:
 /root//g16/l1.exe "/root/g16/scratch/Gau-297234.inp" -scrdir="/root/g16/scratch/"
 Entering Link 1 = /root//g16/l1.exe PID=    297236.
  
 Copyright (c) 1988,1990,1992,1993,1995,1998,2003,2009,2016,
            Gaussian, Inc.  All Rights Reserved.
  
 This is part of the Gaussian(R) 16 program.  It is based on
 the Gaussian(R) 09 system (copyright 2009, Gaussian, Inc.),
 the Gaussian(R) 03 system (copyright 2003, Gaussian, Inc.),
 the Gaussian(R) 98 system (copyright 1998, Gaussian, Inc.),
 the Gaussian(R) 94 system (copyright 1995, Gaussian, Inc.),
 the Gaussian 92(TM) system (copyright 1992, Gaussian, Inc.),
 the Gaussian 90(TM) system (copyright 1990, Gaussian, Inc.),
 the Gaussian 88(TM) system (copyright 1988, Gaussian, Inc.),
 the Gaussian 86(TM) system (copyright 1986, Carnegie Mellon
 University), and the Gaussian 82(TM) system (copyright 1983,
 Carnegie Mellon University). Gaussian is a federally registered
 trademark of Gaussian, Inc.
  
 This software contains proprietary and confidential information,
 including trade secrets, belonging to Gaussian, Inc.
  
 This software is provided under written license and may be
 used, copied, transmitted, or stored only in accord with that
 written license.
  
 The following legend is applicable only to US Government
 contracts under FAR:
  
                    RESTRICTED RIGHTS LEGEND
  
 Use, reproduction and disclosure by the US Government is
 subject to restrictions as set forth in subparagraphs (a)
 and (c) of the Commercial Computer Software - Restricted
 Rights clause in FAR 52.227-19.
  
 Gaussian, Inc.
 340 Quinnipiac St., Bldg. 40, Wallingford CT 06492
  
  
 ---------------------------------------------------------------
 Warning -- This program may not be used in any manner that
 competes with the business of Gaussian, Inc. or will provide
 assistance to any competitor of Gaussian, Inc.  The licensee
 of this program is prohibited from giving any competitor of
 Gaussian, Inc. access to this program.  By using this program,
 the user acknowledges that Gaussian, Inc. is engaged in the
 business of creating and licensing software in the field of
 computational chemistry and represents and warrants to the
 licensee that it is not a competitor of Gaussian, Inc. and that
 it will not use this program in any manner prohibited above.
 ---------------------------------------------------------------
  

 Cite this work as:
 Gaussian 16, Revision A.03,
 M. J. Frisch, G. W. Trucks, H. B. Schlegel, G. E. Scuseria, 
 M. A. Robb, J. R. Cheeseman, G. Scalmani, V. Barone, 
 G. A. Petersson, H. Nakatsuji, X. Li, M. Caricato, A. V. Marenich, 
 J. Bloino, B. G. Janesko, R. Gomperts, B. Mennucci, H. P. Hratchian, 
 J. V. Ortiz, A. F. Izmaylov, J. L. Sonnenberg, D. Williams-Young, 
 F. Ding, F. Lipparini, F. Egidi, J. Goings, B. Peng, A. Petrone, 
 T. Henderson, D. Ranasinghe, V. G. Zakrzewski, J. Gao, N. Rega, 
 G. Zheng, W. Liang, M. Hada, M. Ehara, K. Toyota, R. Fukuda, 
 J. Hasegawa, M. Ishida, T. Nakajima, Y. Honda, O. Kitao, H. Nakai, 
 T. Vreven, K. Throssell, J. A. Montgomery, Jr., J. E. Peralta, 
 F. Ogliaro, M. J. Bearpark, J. J. Heyd, E. N. Brothers, K. N. Kudin, 
 V. N. Staroverov, T. A. Keith, R. Kobayashi, J. Normand, 
 K. Raghavachari, A. P. Rendell, J. C. Burant, S. S. Iyengar, 
 J. Tomasi, M. Cossi, J. M. Millam, M. Klene, C. Adamo, R. Cammi, 
 J. W. Ochterski, R. L. Martin, K. Morokuma, O. Farkas, 
 J. B. Foresman, and D. J. Fox, Gaussian, Inc., Wallingford CT, 2016.
 
 ******************************************
 Gaussian 16:  ES64L-G16RevA.03 25-Dec-2016
                14-Jan-2026 
 ******************************************
 %chk=conf_000.chk
 %nprocshared=16
 Will use up to   16 processors via shared memory.
 %mem=32GB
 ---------------------------------------------------------
 #p B3LYP/def2SVP em=GD3BJ Opt SCF=(XQC,MaxCycle=256) Freq
 ---------------------------------------------------------
 1/18=20,19=15,26=3,38=1/1,3;
 2/9=110,12=2,17=6,18=5,40=1/2;
 3/5=43,7=101,11=2,25=1,30=1,71=1,74=-5,124=41/1,2,3;
 4//1;
 5/5=2,7=256,8=3,13=1,38=5/2,8;
 6/7=2,8=2,9=2,10=2,28=1/1;
 7//1,2,3,16;
 1/18=20,19=15,26=3/3(2);
 2/9=110/2;
 99//99;
 2/9=110/2;
 3/5=43,7=101,11=2,25=1,30=1,71=1,74=-5,124=41/1,2,3;
 4/5=5,16=3,69=1/1;
 5/5=2,7=256,8=3,13=1,38=5/2,8;
 7//1,2,3,16;
 1/18=20,19=15,26=3/3(-5);
 2/9=110/2;
 6/7=2,8=2,9=2,10=2,19=2,28=1/1;
 99/9=1/99;
 Leave Link    1 at Wed Jan 14 09:35:06 2026, MaxMem=  4294967296 cpu:               0.3 elap:               0.0
 (Enter /root//g16/l101.exe)
 ------------
 -41.88650947
 ------------
 Symbolic Z-matrix:
 Charge =  0 Multiplicity = 1
 O                     2.77296   0.54298   1.51356 
 C                     1.92426   0.5178    0.64307 
 C                     0.72929   1.35801   0.64158 
 C                    -0.21965   1.19046  -0.29094 
 C                    -1.5377    1.8898   -0.28346 
 C                    -2.58965   1.02855   0.43563 
 C                    -2.64059  -0.40613  -0.11155 
 C                    -1.3939   -1.14895   0.31756 
 O                    -1.2753   -1.61729   1.42359 
 C                    -0.29837  -1.24463  -0.73139 
 C                     1.06421  -1.67532  -0.17337 
 C                     1.97638  -0.4709   -0.51951 
 O                     1.3918    0.09066  -1.67652 
 C                     0.02287   0.1509   -1.35652 
 H                     0.63803   2.08778   1.43297 
 H                    -1.45186   2.84516   0.23519 
 H                    -1.86322   2.07399  -1.309 
 H                    -3.56799   1.49461   0.31426 
 H                    -2.35973   0.98709   1.50186 
 H                    -2.74189  -0.39499  -1.19594 
 H                    -3.50145  -0.91206   0.32933 
 H                    -0.64105  -1.92833  -1.5124 
 H                     1.01491  -1.85153   0.90121 
 H                     1.432    -2.5743   -0.66349 
 H                     3.00651  -0.7515   -0.74178 
 H                    -0.52415   0.36268  -2.2757 
 
 ITRead=  0  0  0  0  0  0  0  0  0  0  0  0  0  0  0  0  0  0  0  0
 ITRead=  0  0  0  0  0  0
 MicOpt= -1 -1 -1 -1 -1 -1 -1 -1 -1 -1 -1 -1 -1 -1 -1 -1 -1 -1 -1 -1
 MicOpt= -1 -1 -1 -1 -1 -1
 NAtoms=     26 NQM=       26 NQMF=       0 NMMI=      0 NMMIF=      0
                NMic=       0 NMicF=      0.
                    Isotopes and Nuclear Properties:
 (Nuclear quadrupole moments (NQMom) in fm**2, nuclear magnetic moments (NMagM)
  in nuclear magnetons)

  Atom         1           2           3           4           5           6           7           8           9          10
 IAtWgt=          16          12          12          12          12          12          12          12          16          12
 AtmWgt=  15.9949146  12.0000000  12.0000000  12.0000000  12.0000000  12.0000000  12.0000000  12.0000000  15.9949146  12.0000000
 NucSpn=           0           0           0           0           0           0           0           0           0           0
 AtZEff=  -0.0000000  -0.0000000  -0.0000000  -0.0000000  -0.0000000  -0.0000000  -0.0000000  -0.0000000  -0.0000000  -0.0000000
 NQMom=    0.0000000   0.0000000   0.0000000   0.0000000   0.0000000   0.0000000   0.0000000   0.0000000   0.0000000   0.0000000
 NMagM=    0.0000000   0.0000000   0.0000000   0.0000000   0.0000000   0.0000000   0.0000000   0.0000000   0.0000000   0.0000000
 AtZNuc=   8.0000000   6.0000000   6.0000000   6.0000000   6.0000000   6.0000000   6.0000000   6.0000000   8.0000000   6.0000000

  Atom        11          12          13          14          15          16          17          18          19          20
 IAtWgt=          12          12          16          12           1           1           1           1           1           1
 AtmWgt=  12.0000000  12.0000000  15.9949146  12.0000000   1.0078250   1.0078250   1.0078250   1.0078250   1.0078250   1.0078250
 NucSpn=           0           0           0           0           1           1           1           1           1           1
 AtZEff=  -0.0000000  -0.0000000  -0.0000000  -0.0000000  -0.0000000  -0.0000000  -0.0000000  -0.0000000  -0.0000000  -0.0000000
 NQMom=    0.0000000   0.0000000   0.0000000   0.0000000   0.0000000   0.0000000   0.0000000   0.0000000   0.0000000   0.0000000
 NMagM=    0.0000000   0.0000000   0.0000000   0.0000000   2.7928460   2.7928460   2.7928460   2.7928460   2.7928460   2.7928460
 AtZNuc=   6.0000000   6.0000000   8.0000000   6.0000000   1.0000000   1.0000000   1.0000000   1.0000000   1.0000000   1.0000000

  Atom        21          22          23          24          25          26
 IAtWgt=           1           1           1           1           1           1
 AtmWgt=   1.0078250   1.0078250   1.0078250   1.0078250   1.0078250   1.0078250
 NucSpn=           1           1           1           1           1           1
 AtZEff=  -0.0000000  -0.0000000  -0.0000000  -0.0000000  -0.0000000  -0.0000000
 NQMom=    0.0000000   0.0000000   0.0000000   0.0000000   0.0000000   0.0000000
 NMagM=    2.7928460   2.7928460   2.7928460   2.7928460   2.7928460   2.7928460
 AtZNuc=   1.0000000   1.0000000   1.0000000   1.0000000   1.0000000   1.0000000
 Leave Link  101 at Wed Jan 14 09:35:07 2026, MaxMem=  4294967296 cpu:               3.6 elap:               0.2
 (Enter /root//g16/l103.exe)

 GradGradGradGradGradGradGradGradGradGradGradGradGradGradGradGradGradGrad
 Berny optimization.
 Initialization pass.
                           ----------------------------
                           !    Initial Parameters    !
                           ! (Angstroms and Degrees)  !
 --------------------------                            --------------------------
 ! Name  Definition              Value          Derivative Info.                !
 --------------------------------------------------------------------------------
 ! R1    R(1,2)                  1.216          estimate D2E/DX2                !
 ! R2    R(2,3)                  1.4608         estimate D2E/DX2                !
 ! R3    R(2,12)                 1.527          estimate D2E/DX2                !
 ! R4    R(3,4)                  1.3409         estimate D2E/DX2                !
 ! R5    R(3,15)                 1.0804         estimate D2E/DX2                !
 ! R6    R(4,5)                  1.4921         estimate D2E/DX2                !
 ! R7    R(4,14)                 1.5083         estimate D2E/DX2                !
 ! R8    R(5,6)                  1.538          estimate D2E/DX2                !
 ! R9    R(5,16)                 1.0905         estimate D2E/DX2                !
 ! R10   R(5,17)                 1.0916         estimate D2E/DX2                !
 ! R11   R(6,7)                  1.5363         estimate D2E/DX2                !
 ! R12   R(6,18)                 1.0905         estimate D2E/DX2                !
 ! R13   R(6,19)                 1.0915         estimate D2E/DX2                !
 ! R14   R(7,8)                  1.5133         estimate D2E/DX2                !
 ! R15   R(7,20)                 1.0892         estimate D2E/DX2                !
 ! R16   R(7,21)                 1.0915         estimate D2E/DX2                !
 ! R17   R(8,9)                  1.2069         estimate D2E/DX2                !
 ! R18   R(8,10)                 1.5198         estimate D2E/DX2                !
 ! R19   R(10,11)                1.5341         estimate D2E/DX2                !
 ! R20   R(10,14)                1.5625         estimate D2E/DX2                !
 ! R21   R(10,22)                1.0931         estimate D2E/DX2                !
 ! R22   R(11,12)                1.55           estimate D2E/DX2                !
 ! R23   R(11,23)                1.09           estimate D2E/DX2                !
 ! R24   R(11,24)                1.088          estimate D2E/DX2                !
 ! R25   R(12,13)                1.4127         estimate D2E/DX2                !
 ! R26   R(12,25)                1.0906         estimate D2E/DX2                !
 ! R27   R(13,14)                1.4071         estimate D2E/DX2                !
 ! R28   R(14,26)                1.0904         estimate D2E/DX2                !
 ! A1    A(1,2,3)              124.0388         estimate D2E/DX2                !
 ! A2    A(1,2,12)             122.3164         estimate D2E/DX2                !
 ! A3    A(3,2,12)             113.5497         estimate D2E/DX2                !
 ! A4    A(2,3,4)              120.5127         estimate D2E/DX2                !
 ! A5    A(2,3,15)             117.1852         estimate D2E/DX2                !
 ! A6    A(4,3,15)             122.2786         estimate D2E/DX2                !
 ! A7    A(3,4,5)              124.2676         estimate D2E/DX2                !
 ! A8    A(3,4,14)             117.622          estimate D2E/DX2                !
 ! A9    A(5,4,14)             117.9439         estimate D2E/DX2                !
 ! A10   A(4,5,6)              110.1249         estimate D2E/DX2                !
 ! A11   A(4,5,16)             110.089          estimate D2E/DX2                !
 ! A12   A(4,5,17)             109.7422         estimate D2E/DX2                !
 ! A13   A(6,5,16)             108.7879         estimate D2E/DX2                !
 ! A14   A(6,5,17)             109.2551         estimate D2E/DX2                !
 ! A15   A(16,5,17)            108.8136         estimate D2E/DX2                !
 ! A16   A(5,6,7)              112.2774         estimate D2E/DX2                !
 ! A17   A(5,6,18)             108.8005         estimate D2E/DX2                !
 ! A18   A(5,6,19)             109.5069         estimate D2E/DX2                !
 ! A19   A(7,6,18)             109.2521         estimate D2E/DX2                !
 ! A20   A(7,6,19)             108.6278         estimate D2E/DX2                !
 ! A21   A(18,6,19)            108.2966         estimate D2E/DX2                !
 ! A22   A(6,7,8)              109.273          estimate D2E/DX2                !
 ! A23   A(6,7,20)             110.3727         estimate D2E/DX2                !
 ! A24   A(6,7,21)             108.3695         estimate D2E/DX2                !
 ! A25   A(8,7,20)             111.3427         estimate D2E/DX2                !
 ! A26   A(8,7,21)             107.9188         estimate D2E/DX2                !
 ! A27   A(20,7,21)            109.4835         estimate D2E/DX2                !
 ! A28   A(7,8,9)              122.091          estimate D2E/DX2                !
 ! A29   A(7,8,10)             115.4071         estimate D2E/DX2                !
 ! A30   A(9,8,10)             122.4957         estimate D2E/DX2                !
 ! A31   A(8,10,11)            114.0088         estimate D2E/DX2                !
 ! A32   A(8,10,14)            111.5993         estimate D2E/DX2                !
 ! A33   A(8,10,22)            107.8507         estimate D2E/DX2                !
 ! A34   A(11,10,14)           102.3373         estimate D2E/DX2                !
 ! A35   A(11,10,22)           111.2687         estimate D2E/DX2                !
 ! A36   A(14,10,22)           109.7077         estimate D2E/DX2                !
 ! A37   A(10,11,12)           102.9037         estimate D2E/DX2                !
 ! A38   A(10,11,23)           111.3334         estimate D2E/DX2                !
 ! A39   A(10,11,24)           111.615          estimate D2E/DX2                !
 ! A40   A(12,11,23)           111.8625         estimate D2E/DX2                !
 ! A41   A(12,11,24)           110.0306         estimate D2E/DX2                !
 ! A42   A(23,11,24)           109.0153         estimate D2E/DX2                !
 ! A43   A(2,12,11)            108.2402         estimate D2E/DX2                !
 ! A44   A(2,12,13)            110.6119         estimate D2E/DX2                !
 ! A45   A(2,12,25)            110.7323         estimate D2E/DX2                !
 ! A46   A(11,12,13)           104.3745         estimate D2E/DX2                !
 ! A47   A(11,12,25)           113.6701         estimate D2E/DX2                !
 ! A48   A(13,12,25)           109.0403         estimate D2E/DX2                !
 ! A49   A(12,13,14)           103.4937         estimate D2E/DX2                !
 ! A50   A(4,14,10)            107.4493         estimate D2E/DX2                !
 ! A51   A(4,14,13)            110.2786         estimate D2E/DX2                !
 ! A52   A(4,14,26)            112.3965         estimate D2E/DX2                !
 ! A53   A(10,14,13)           104.6407         estimate D2E/DX2                !
 ! A54   A(10,14,26)           114.0538         estimate D2E/DX2                !
 ! A55   A(13,14,26)           107.7379         estimate D2E/DX2                !
 ! D1    D(1,2,3,4)           -174.0892         estimate D2E/DX2                !
 ! D2    D(1,2,3,15)             4.1875         estimate D2E/DX2                !
 ! D3    D(12,2,3,4)             2.4313         estimate D2E/DX2                !
 ! D4    D(12,2,3,15)         -179.292          estimate D2E/DX2                !
 ! D5    D(1,2,12,11)           97.1309         estimate D2E/DX2                !
 ! D6    D(1,2,12,13)         -149.0894         estimate D2E/DX2                !
 ! D7    D(1,2,12,25)          -28.0893         estimate D2E/DX2                !
 ! D8    D(3,2,12,11)          -79.4574         estimate D2E/DX2                !
 ! D9    D(3,2,12,13)           34.3223         estimate D2E/DX2                !
 ! D10   D(3,2,12,25)          155.3224         estimate D2E/DX2                !
 ! D11   D(2,3,4,5)            172.7617         estimate D2E/DX2                !
 ! D12   D(2,3,4,14)            -2.4414         estimate D2E/DX2                !
 ! D13   D(15,3,4,5)            -5.4251         estimate D2E/DX2                !
 ! D14   D(15,3,4,14)          179.3718         estimate D2E/DX2                !
 ! D15   D(3,4,5,6)            -92.5935         estimate D2E/DX2                !
 ! D16   D(3,4,5,16)            27.3566         estimate D2E/DX2                !
 ! D17   D(3,4,5,17)           147.0976         estimate D2E/DX2                !
 ! D18   D(14,4,5,6)            82.5953         estimate D2E/DX2                !
 ! D19   D(14,4,5,16)         -157.4545         estimate D2E/DX2                !
 ! D20   D(14,4,5,17)          -37.7136         estimate D2E/DX2                !
 ! D21   D(3,4,14,10)           79.0767         estimate D2E/DX2                !
 ! D22   D(3,4,14,13)          -34.4136         estimate D2E/DX2                !
 ! D23   D(3,4,14,26)         -154.6493         estimate D2E/DX2                !
 ! D24   D(5,4,14,10)          -96.4365         estimate D2E/DX2                !
 ! D25   D(5,4,14,13)          150.0732         estimate D2E/DX2                !
 ! D26   D(5,4,14,26)           29.8375         estimate D2E/DX2                !
 ! D27   D(4,5,6,7)            -51.5229         estimate D2E/DX2                !
 ! D28   D(4,5,6,18)          -172.5785         estimate D2E/DX2                !
 ! D29   D(4,5,6,19)            69.2296         estimate D2E/DX2                !
 ! D30   D(16,5,6,7)          -172.2575         estimate D2E/DX2                !
 ! D31   D(16,5,6,18)           66.6868         estimate D2E/DX2                !
 ! D32   D(16,5,6,19)          -51.5051         estimate D2E/DX2                !
 ! D33   D(17,5,6,7)            69.0793         estimate D2E/DX2                !
 ! D34   D(17,5,6,18)          -51.9764         estimate D2E/DX2                !
 ! D35   D(17,5,6,19)         -170.1683         estimate D2E/DX2                !
 ! D36   D(5,6,7,8)             71.2245         estimate D2E/DX2                !
 ! D37   D(5,6,7,20)           -51.536          estimate D2E/DX2                !
 ! D38   D(5,6,7,21)          -171.4176         estimate D2E/DX2                !
 ! D39   D(18,6,7,8)          -167.9797         estimate D2E/DX2                !
 ! D40   D(18,6,7,20)           69.2597         estimate D2E/DX2                !
 ! D41   D(18,6,7,21)          -50.6218         estimate D2E/DX2                !
 ! D42   D(19,6,7,8)           -50.0335         estimate D2E/DX2                !
 ! D43   D(19,6,7,20)         -172.7941         estimate D2E/DX2                !
 ! D44   D(19,6,7,21)           67.3244         estimate D2E/DX2                !
 ! D45   D(6,7,8,9)             79.7262         estimate D2E/DX2                !
 ! D46   D(6,7,8,10)           -99.3886         estimate D2E/DX2                !
 ! D47   D(20,7,8,9)          -158.094          estimate D2E/DX2                !
 ! D48   D(20,7,8,10)           22.7912         estimate D2E/DX2                !
 ! D49   D(21,7,8,9)           -37.9155         estimate D2E/DX2                !
 ! D50   D(21,7,8,10)          142.9698         estimate D2E/DX2                !
 ! D51   D(7,8,10,11)          165.285          estimate D2E/DX2                !
 ! D52   D(7,8,10,14)           49.9499         estimate D2E/DX2                !
 ! D53   D(7,8,10,22)          -70.6162         estimate D2E/DX2                !
 ! D54   D(9,8,10,11)          -13.8258         estimate D2E/DX2                !
 ! D55   D(9,8,10,14)         -129.1608         estimate D2E/DX2                !
 ! D56   D(9,8,10,22)          110.273          estimate D2E/DX2                !
 ! D57   D(8,10,11,12)        -119.509          estimate D2E/DX2                !
 ! D58   D(8,10,11,23)           0.4649         estimate D2E/DX2                !
 ! D59   D(8,10,11,24)         122.5376         estimate D2E/DX2                !
 ! D60   D(14,10,11,12)          1.1496         estimate D2E/DX2                !
 ! D61   D(14,10,11,23)        121.1235         estimate D2E/DX2                !
 ! D62   D(14,10,11,24)       -116.8037         estimate D2E/DX2                !
 ! D63   D(22,10,11,12)        118.2505         estimate D2E/DX2                !
 ! D64   D(22,10,11,23)       -121.7756         estimate D2E/DX2                !
 ! D65   D(22,10,11,24)          0.2972         estimate D2E/DX2                !
 ! D66   D(8,10,14,4)           31.3749         estimate D2E/DX2                !
 ! D67   D(8,10,14,13)         148.6079         estimate D2E/DX2                !
 ! D68   D(8,10,14,26)         -93.9122         estimate D2E/DX2                !
 ! D69   D(11,10,14,4)         -90.938          estimate D2E/DX2                !
 ! D70   D(11,10,14,13)         26.295          estimate D2E/DX2                !
 ! D71   D(11,10,14,26)        143.7749         estimate D2E/DX2                !
 ! D72   D(22,10,14,4)         150.8481         estimate D2E/DX2                !
 ! D73   D(22,10,14,13)        -91.9189         estimate D2E/DX2                !
 ! D74   D(22,10,14,26)         25.561          estimate D2E/DX2                !
 ! D75   D(10,11,12,2)          89.6873         estimate D2E/DX2                !
 ! D76   D(10,11,12,13)        -28.1589         estimate D2E/DX2                !
 ! D77   D(10,11,12,25)       -146.8476         estimate D2E/DX2                !
 ! D78   D(23,11,12,2)         -29.9208         estimate D2E/DX2                !
 ! D79   D(23,11,12,13)       -147.7669         estimate D2E/DX2                !
 ! D80   D(23,11,12,25)         93.5444         estimate D2E/DX2                !
 ! D81   D(24,11,12,2)        -151.2499         estimate D2E/DX2                !
 ! D82   D(24,11,12,13)         90.9039         estimate D2E/DX2                !
 ! D83   D(24,11,12,25)        -27.7848         estimate D2E/DX2                !
 ! D84   D(2,12,13,14)         -69.6708         estimate D2E/DX2                !
 ! D85   D(11,12,13,14)         46.5356         estimate D2E/DX2                !
 ! D86   D(25,12,13,14)        168.3303         estimate D2E/DX2                !
 ! D87   D(12,13,14,4)          69.531          estimate D2E/DX2                !
 ! D88   D(12,13,14,10)        -45.7417         estimate D2E/DX2                !
 ! D89   D(12,13,14,26)       -167.4681         estimate D2E/DX2                !
 --------------------------------------------------------------------------------
 Trust Radius=3.00D-01 FncErr=1.00D-07 GrdErr=1.00D-06 EigMax=2.50D+02 EigMin=1.00D-04
 Number of steps in this run=    156 maximum allowed number of steps=    156.
 GradGradGradGradGradGradGradGradGradGradGradGradGradGradGradGradGradGrad

 Leave Link  103 at Wed Jan 14 09:35:07 2026, MaxMem=  4294967296 cpu:               0.1 elap:               0.0
 (Enter /root//g16/l202.exe)
                          Input orientation:                          
 ---------------------------------------------------------------------
 Center     Atomic      Atomic             Coordinates (Angstroms)
 Number     Number       Type             X           Y           Z
 ---------------------------------------------------------------------
      1          8           0        2.772963    0.542982    1.513561
      2          6           0        1.924261    0.517795    0.643074
      3          6           0        0.729286    1.358009    0.641579
      4          6           0       -0.219646    1.190459   -0.290941
      5          6           0       -1.537700    1.889801   -0.283462
      6          6           0       -2.589646    1.028551    0.435631
      7          6           0       -2.640594   -0.406129   -0.111545
      8          6           0       -1.393901   -1.148952    0.317559
      9          8           0       -1.275297   -1.617285    1.423587
     10          6           0       -0.298367   -1.244629   -0.731391
     11          6           0        1.064213   -1.675321   -0.173368
     12          6           0        1.976381   -0.470903   -0.519512
     13          8           0        1.391798    0.090660   -1.676518
     14          6           0        0.022866    0.150895   -1.356525
     15          1           0        0.638032    2.087783    1.432970
     16          1           0       -1.451864    2.845162    0.235192
     17          1           0       -1.863220    2.073988   -1.309002
     18          1           0       -3.567989    1.494610    0.314258
     19          1           0       -2.359734    0.987090    1.501859
     20          1           0       -2.741891   -0.394986   -1.195939
     21          1           0       -3.501445   -0.912064    0.329335
     22          1           0       -0.641051   -1.928327   -1.512396
     23          1           0        1.014912   -1.851533    0.901214
     24          1           0        1.432003   -2.574300   -0.663491
     25          1           0        3.006511   -0.751504   -0.741780
     26          1           0       -0.524146    0.362684   -2.275697
 ---------------------------------------------------------------------
                    Distance matrix (angstroms):
                    1          2          3          4          5
     1  O    0.000000
     2  C    1.216009   0.000000
     3  C    2.366693   1.460797   0.000000
     4  C    3.554035   2.433351   1.340947   0.000000
     5  C    4.860558   3.837453   2.505540   1.492113   0.000000
     6  C    5.491383   4.547445   3.341596   2.484153   1.537997
     7  C    5.731351   4.718155   3.877560   2.905557   2.552886
     8  C    4.653582   3.727494   3.301177   2.687376   3.100956
     9  O    4.589473   3.924913   3.671821   3.455059   3.909287
    10  C    4.203383   3.152042   3.116864   2.475853   3.400183
    11  C    3.269010   2.493195   3.158703   3.142421   4.414994
    12  C    2.407466   1.527038   2.499659   2.763133   4.239977
    13  O    3.505541   2.417947   2.723724   2.392934   3.709377
    14  C    3.994266   2.783579   2.438970   1.508302   2.571113
    15  H    2.636443   2.177885   1.080369   2.124305   2.778336
    16  H    4.978295   4.120828   2.670990   2.129136   1.090452
    17  H    5.639595   4.536226   3.322421   2.125655   1.091614
    18  H    6.523158   5.588121   4.311887   3.416163   2.153025
    19  H    5.151888   4.394356   3.227957   2.799190   2.162868
    20  H    6.215688   5.097853   4.300992   3.113579   2.739150
    21  H    6.548874   5.619717   4.811426   3.946587   3.475955
    22  H    5.188379   4.148540   4.161422   3.375849   4.110032
    23  H    3.033053   2.550934   3.232669   3.492718   4.681545
    24  H    4.031771   3.392710   4.202389   4.127971   5.375105
    25  H    2.610900   2.167995   3.398453   3.792436   5.276022
    26  H    5.026123   3.812870   3.327501   2.171909   2.707098
                    6          7          8          9         10
     6  C    0.000000
     7  C    1.536328   0.000000
     8  C    2.487020   1.513327   0.000000
     9  O    3.115128   2.384861   1.206939   0.000000
    10  C    3.432091   2.563848   1.519752   2.395244   0.000000
    11  C    4.586119   3.916665   2.561327   2.833186   1.534115
    12  C    4.899924   4.635417   3.538254   3.957681   2.412058
    13  O    4.603554   4.353863   3.643227   4.431831   2.352216
    14  C    3.287449   2.992369   2.549390   3.541287   1.562521
    15  H    3.540419   4.399377   3.981125   4.169946   4.082435
    16  H    2.152858   3.479109   3.995384   4.621352   4.357893
    17  H    2.159716   2.861677   3.640509   4.630140   3.714246
    18  H    1.090457   2.157355   3.422731   4.021310   4.391724
    19  H    1.091523   2.150120   2.626419   2.822216   3.770572
    20  H    2.170635   1.089171   2.162456   3.241423   2.628404
    21  H    2.146780   1.091518   2.120848   2.578849   3.390494
    22  H    4.041652   2.877089   2.126721   3.019770   1.093089
    23  H    4.637293   4.059261   2.576171   2.360679   2.181383
    24  H    5.510196   4.646682   3.313579   3.549823   2.183304
    25  H    5.989312   5.692651   4.543544   4.875682   3.341482
    26  H    3.472890   3.123136   3.125139   4.262535   2.240382
                   11         12         13         14         15
    11  C    0.000000
    12  C    1.549996   0.000000
    13  O    2.342106   1.412712   0.000000
    14  C    2.412329   2.214372   1.407124   0.000000
    15  H    4.113746   3.485719   3.771682   3.451267   0.000000
    16  H    5.189637   4.828947   4.396400   3.459402   2.525067
    17  H    4.890485   4.673575   3.829334   2.694042   3.711451
    18  H    5.634140   5.941250   5.525736   4.182263   4.392492
    19  H    4.649541   5.001358   4.997966   3.813970   3.194194
    20  H    4.143831   4.767117   4.189772   2.822703   4.949665
    21  H    4.656233   5.560732   5.382633   4.048800   5.229949
    22  H    2.182873   3.156082   2.869794   2.188206   5.142020
    23  H    1.090049   2.202049   3.249440   3.176674   3.992870
    24  H    1.087958   2.177465   2.851290   3.145259   5.173061
    25  H    2.224647   1.090554   2.047016   3.177165   4.289613
    26  H    3.331086   3.167284   2.025797   1.090392   4.252157
                   16         17         18         19         20
    16  H    0.000000
    17  H    1.774390   0.000000
    18  H    2.511619   2.424229   0.000000
    19  H    2.425099   3.054311   1.768573   0.000000
    20  H    3.769730   2.623105   2.556112   3.055207   0.000000
    21  H    4.280934   3.779475   2.407641   2.507011   1.780661
    22  H    5.147589   4.189700   4.860054   4.532026   2.620077
    23  H    5.346729   5.345878   5.704750   4.450482   4.542372
    24  H    6.204425   5.734262   6.520118   5.634671   4.738596
    25  H    5.810989   5.658572   7.027396   6.070685   5.777326
    26  H    3.650742   2.378272   4.153806   4.246080   2.580375
                   21         22         23         24         25
    21  H    0.000000
    22  H    3.550580   0.000000
    23  H    4.648347   2.928075   0.000000
    24  H    5.299778   2.331410   1.773319   0.000000
    25  H    6.597467   3.909408   2.806414   2.409936   0.000000
    26  H    4.156379   2.417649   4.167040   3.879639   4.007475
                   26
    26  H    0.000000
 Stoichiometry    C11H12O3
 Framework group  C1[X(C11H12O3)]
 Deg. of freedom    72
 Full point group                 C1      NOp   1
 Largest Abelian subgroup         C1      NOp   1
 Largest concise Abelian subgroup C1      NOp   1
                         Standard orientation:                         
 ---------------------------------------------------------------------
 Center     Atomic      Atomic             Coordinates (Angstroms)
 Number     Number       Type             X           Y           Z
 ---------------------------------------------------------------------
      1          8           0        2.793896   -0.768383   -1.483804
      2          6           0        1.947619   -0.647548   -0.618996
      3          6           0        0.712495   -1.425950   -0.569140
      4          6           0       -0.226829   -1.154411    0.348508
      5          6           0       -1.577904   -1.786852    0.380361
      6          6           0       -2.586013   -0.920699   -0.393546
      7          6           0       -2.565753    0.545798    0.063929
      8          6           0       -1.283865    1.198147   -0.406562
      9          8           0       -1.142382    1.590839   -1.539027
     10          6           0       -0.184772    1.304138    0.637663
     11          6           0        1.197380    1.631643    0.058091
     12          6           0        2.048827    0.407275    0.480526
     13          8           0        1.437328   -0.052165    1.668271
     14          6           0        0.067043   -0.064287    1.348629
     15          1           0        0.585084   -2.197801   -1.314263
     16          1           0       -1.539574   -2.775495   -0.078115
     17          1           0       -1.911988   -1.891028    1.414361
     18          1           0       -3.586220   -1.329426   -0.246493
     19          1           0       -2.354496   -0.956586   -1.459629
     20          1           0       -2.667308    0.606671    1.146646
     21          1           0       -3.400557    1.065483   -0.409821
     22          1           0       -0.493050    2.050872    1.374003
     23          1           0        1.156700    1.743373   -1.025453
     24          1           0        1.609322    2.539888    0.492887
     25          1           0        3.091626    0.649789    0.688050
     26          1           0       -0.489645   -0.191596    2.277524
 ---------------------------------------------------------------------
 Rotational constants (GHZ):           1.1696903           0.6785223           0.6167794
 Leave Link  202 at Wed Jan 14 09:35:07 2026, MaxMem=  4294967296 cpu:               0.0 elap:               0.0
 (Enter /root//g16/l301.exe)
 Standard basis: def2SVP (5D, 7F)
 Ernie: Thresh=  0.10000D-02 Tol=  0.10000D-05 Strict=F.
 There are   270 symmetry adapted cartesian basis functions of A   symmetry.
 There are   256 symmetry adapted basis functions of A   symmetry.
   256 basis functions,   434 primitive gaussians,   270 cartesian basis functions
    51 alpha electrons       51 beta electrons
       nuclear repulsion energy       952.8136001039 Hartrees.
 IExCor=  402 DFT=T Ex+Corr=B3LYP ExCW=0 ScaHFX=  0.200000
 ScaDFX=  0.800000  0.720000  1.000000  0.810000 ScalE2=  1.000000  1.000000
 IRadAn=      5 IRanWt=     -1 IRanGd=            0 ICorTp=0 IEmpDi=141
 NAtoms=   26 NActive=   26 NUniq=   26 SFac= 1.00D+00 NAtFMM=   60 NAOKFM=F Big=F
 Integral buffers will be    131072 words long.
 Raffenetti 2 integral format.
 Two-electron integral symmetry is turned on.
 R6Disp:  Grimme-D3(BJ) Dispersion energy=       -0.0579408297 Hartrees.
 Nuclear repulsion after empirical dispersion term =      952.7556592742 Hartrees.
 Leave Link  301 at Wed Jan 14 09:35:07 2026, MaxMem=  4294967296 cpu:               0.3 elap:               0.0
 (Enter /root//g16/l302.exe)
 NPDir=0 NMtPBC=     1 NCelOv=     1 NCel=       1 NClECP=     1 NCelD=      1
         NCelK=      1 NCelE2=     1 NClLst=     1 CellRange=     0.0.
 One-electron integrals computed using PRISM.
 One-electron integral symmetry used in STVInt
   1 Symmetry operations used in ECPInt.
 ECPInt:  NShTT=    7260 NPrTT=   26324 LenC2=    7150 LenP2D=   19951.
 LDataN:  DoStor=T MaxTD1= 4 Len=   56
 NBasis=   256 RedAO= T EigKep=  3.31D-04  NBF=   256
 NBsUse=   256 1.00D-06 EigRej= -1.00D+00 NBFU=   256
 Precomputing XC quadrature grid using
 IXCGrd= 4 IRadAn=           5 IRanWt=          -1 IRanGd=           0 AccXCQ= 0.00D+00.
 Generated NRdTot=       0 NPtTot=           0 NUsed=           0 NTot=          32
 NSgBfM=   270   270   270   270   270 MxSgAt=    26 MxSgA2=    26.
 Leave Link  302 at Wed Jan 14 09:35:07 2026, MaxMem=  4294967296 cpu:               1.9 elap:               0.1
 (Enter /root//g16/l303.exe)
 DipDrv:  MaxL=1.
 Leave Link  303 at Wed Jan 14 09:35:07 2026, MaxMem=  4294967296 cpu:               0.5 elap:               0.1
 (Enter /root//g16/l401.exe)
 ExpMin= 1.22D-01 ExpMax= 2.27D+03 ExpMxC= 3.41D+02 IAcc=3 IRadAn=         5 AccDes= 0.00D+00
 Harris functional with IExCor=  402 and IRadAn=       5 diagonalized for initial guess.
 HarFok:  IExCor=  402 AccDes= 0.00D+00 IRadAn=         5 IDoV= 1 UseB2=F ITyADJ=14
 ICtDFT=  3500011 ScaDFX=  1.000000  1.000000  1.000000  1.000000
 FoFCou: FMM=F IPFlag=           0 FMFlag=      100000 FMFlg1=           0
         NFxFlg=           0 DoJE=T BraDBF=F KetDBF=T FulRan=T
         wScrn=  0.000000 ICntrl=       500 IOpCl=  0 I1Cent=   200000004 NGrid=           0
         NMat0=    1 NMatS0=      1 NMatT0=    0 NMatD0=    1 NMtDS0=    0 NMtDT0=    0
 Petite list used in FoFCou.
 Harris En= -651.606184658130    
 JPrj=0 DoOrth=F DoCkMO=F.
 Leave Link  401 at Wed Jan 14 09:35:08 2026, MaxMem=  4294967296 cpu:               7.2 elap:               0.5
 (Enter /root//g16/l502.exe)
 Integral symmetry usage will be decided dynamically.
 Closed shell SCF:
 Using DIIS extrapolation, IDIIS=  1040.
 NGot=  4294967296 LenX=  4294814202 LenY=  4294740861
 Requested convergence on RMS density matrix=1.00D-08 within 128 cycles.
 Requested convergence on MAX density matrix=1.00D-06.
 Requested convergence on             energy=1.00D-06.
 No special actions if energy rises.
 Fock matrices will be formed incrementally for  20 cycles.
 Integral accuracy reduced to 1.0D-05 until final iterations.

 Cycle   1  Pass 0  IDiag  1:
 FoFJK:  IHMeth= 1 ICntrl=       0 DoSepK=F KAlg= 0 I1Cent=           0 FoldK=F
 IRaf= 960000000 NMat=       1 IRICut=       1 DoRegI=T DoRafI=F ISym2E= 0 IDoP0=0 IntGTp=1.
 FoFCou: FMM=F IPFlag=           0 FMFlag=      100000 FMFlg1=           0
         NFxFlg=           0 DoJE=F BraDBF=F KetDBF=F FulRan=T
         wScrn=  0.000000 ICntrl=         0 IOpCl=  0 I1Cent=           0 NGrid=           0
         NMat0=    1 NMatS0=      1 NMatT0=    0 NMatD0=    1 NMtDS0=    0 NMtDT0=    0
 Symmetry not used in FoFCou.
 E= -651.316105460170    
 DIIS: error= 1.98D-02 at cycle   1 NSaved=   1.
 NSaved= 1 IEnMin= 1 EnMin= -651.316105460170     IErMin= 1 ErrMin= 1.98D-02
 ErrMax= 1.98D-02  0.00D+00 EMaxC= 1.00D-01 BMatC= 3.13D-01 BMatP= 3.13D-01
 IDIUse=3 WtCom= 8.02D-01 WtEn= 1.98D-01
 Coeff-Com:  0.100D+01
 Coeff-En:   0.100D+01
 Coeff:      0.100D+01
 Gap=     0.138 Goal=   None    Shift=    0.000
 GapD=    0.138 DampG=1.000 DampE=0.500 DampFc=0.5000 IDamp=-1.
 Damping current iteration by 5.00D-01
 RMSDP=8.27D-03 MaxDP=4.35D-01              OVMax= 2.44D-01

 Cycle   2  Pass 0  IDiag  1:
 RMSU=  4.13D-03    CP:  9.91D-01
 E= -651.412334174113     Delta-E=       -0.096228713943 Rises=F Damp=T
 DIIS: error= 8.61D-03 at cycle   2 NSaved=   2.
 NSaved= 2 IEnMin= 2 EnMin= -651.412334174113     IErMin= 2 ErrMin= 8.61D-03
 ErrMax= 8.61D-03  0.00D+00 EMaxC= 1.00D-01 BMatC= 4.65D-02 BMatP= 3.13D-01
 IDIUse=3 WtCom= 9.14D-01 WtEn= 8.61D-02
 Coeff-Com:  0.203D+00 0.797D+00
 Coeff-En:   0.289D+00 0.711D+00
 Coeff:      0.210D+00 0.790D+00
 Gap=     0.202 Goal=   None    Shift=    0.000
 RMSDP=2.63D-03 MaxDP=1.48D-01 DE=-9.62D-02 OVMax= 1.60D-01

 Cycle   3  Pass 0  IDiag  1:
 RMSU=  2.35D-03    CP:  9.63D-01  7.58D-01
 E= -651.567127889536     Delta-E=       -0.154793715423 Rises=F Damp=F
 DIIS: error= 1.06D-02 at cycle   3 NSaved=   3.
 NSaved= 3 IEnMin= 3 EnMin= -651.567127889536     IErMin= 2 ErrMin= 8.61D-03
 ErrMax= 1.06D-02  0.00D+00 EMaxC= 1.00D-01 BMatC= 5.23D-02 BMatP= 4.65D-02
 IDIUse=2 WtCom= 0.00D+00 WtEn= 1.00D+00
 Coeff-En:   0.000D+00 0.000D+00 0.100D+01
 Coeff:      0.000D+00 0.000D+00 0.100D+01
 Gap=     0.165 Goal=   None    Shift=    0.000
 RMSDP=4.04D-03 MaxDP=2.13D-01 DE=-1.55D-01 OVMax= 2.66D-01

 Cycle   4  Pass 0  IDiag  1:
 RMSU=  2.23D-03    CP:  9.90D-01  1.33D+00  1.07D-02
 E= -651.337467647091     Delta-E=        0.229660242445 Rises=F Damp=F
 DIIS: error= 2.75D-02 at cycle   4 NSaved=   4.
 NSaved= 4 IEnMin= 3 EnMin= -651.567127889536     IErMin= 2 ErrMin= 8.61D-03
 ErrMax= 2.75D-02  0.00D+00 EMaxC= 1.00D-01 BMatC= 3.30D-01 BMatP= 4.65D-02
 IDIUse=2 WtCom= 0.00D+00 WtEn= 1.00D+00
 Coeff-En:   0.000D+00 0.000D+00 0.799D+00 0.201D+00
 Coeff:      0.000D+00 0.000D+00 0.799D+00 0.201D+00
 Gap=     0.162 Goal=   None    Shift=    0.000
 RMSDP=2.36D-03 MaxDP=1.40D-01 DE= 2.30D-01 OVMax= 1.22D-01

 Cycle   5  Pass 0  IDiag  1:
 RMSU=  2.91D-04    CP:  9.76D-01  9.39D-01  5.38D-01  5.02D-01
 E= -651.593783580527     Delta-E=       -0.256315933436 Rises=F Damp=F
 DIIS: error= 7.42D-03 at cycle   5 NSaved=   5.
 NSaved= 5 IEnMin= 5 EnMin= -651.593783580527     IErMin= 5 ErrMin= 7.42D-03
 ErrMax= 7.42D-03  0.00D+00 EMaxC= 1.00D-01 BMatC= 2.38D-02 BMatP= 4.65D-02
 IDIUse=3 WtCom= 9.26D-01 WtEn= 7.42D-02
 Coeff-Com: -0.489D-02 0.469D-01 0.300D+00-0.102D+00 0.759D+00
 Coeff-En:   0.000D+00 0.000D+00 0.348D+00 0.000D+00 0.652D+00
 Coeff:     -0.453D-02 0.434D-01 0.304D+00-0.941D-01 0.751D+00
 Gap=     0.172 Goal=   None    Shift=    0.000
 RMSDP=7.60D-04 MaxDP=3.46D-02 DE=-2.56D-01 OVMax= 3.37D-02

 Cycle   6  Pass 0  IDiag  1:
 RMSU=  9.42D-05    CP:  9.71D-01  8.47D-01  7.20D-01  2.90D-01  8.70D-01
 E= -651.614304959417     Delta-E=       -0.020521378891 Rises=F Damp=F
 DIIS: error= 5.11D-04 at cycle   6 NSaved=   6.
 NSaved= 6 IEnMin= 6 EnMin= -651.614304959417     IErMin= 6 ErrMin= 5.11D-04
 ErrMax= 5.11D-04  0.00D+00 EMaxC= 1.00D-01 BMatC= 9.40D-05 BMatP= 2.38D-02
 IDIUse=3 WtCom= 9.95D-01 WtEn= 5.11D-03
 Coeff-Com: -0.588D-02 0.249D-01 0.152D+00-0.739D-01 0.465D+00 0.438D+00
 Coeff-En:   0.000D+00 0.000D+00 0.000D+00 0.000D+00 0.000D+00 0.100D+01
 Coeff:     -0.585D-02 0.248D-01 0.151D+00-0.735D-01 0.463D+00 0.441D+00
 Gap=     0.170 Goal=   None    Shift=    0.000
 RMSDP=5.40D-05 MaxDP=3.13D-03 DE=-2.05D-02 OVMax= 3.96D-03

 Cycle   7  Pass 0  IDiag  1:
 RMSU=  2.80D-05    CP:  9.71D-01  8.49D-01  7.20D-01  2.91D-01  8.95D-01
                    CP:  5.26D-01
 E= -651.614383076576     Delta-E=       -0.000078117159 Rises=F Damp=F
 DIIS: error= 1.64D-04 at cycle   7 NSaved=   7.
 NSaved= 7 IEnMin= 7 EnMin= -651.614383076576     IErMin= 7 ErrMin= 1.64D-04
 ErrMax= 1.64D-04  0.00D+00 EMaxC= 1.00D-01 BMatC= 6.95D-06 BMatP= 9.40D-05
 IDIUse=3 WtCom= 9.98D-01 WtEn= 1.64D-03
 Coeff-Com: -0.135D-02 0.344D-02 0.397D-01-0.202D-01 0.124D+00 0.217D+00
 Coeff-Com:  0.638D+00
 Coeff-En:   0.000D+00 0.000D+00 0.000D+00 0.000D+00 0.000D+00 0.000D+00
 Coeff-En:   0.100D+01
 Coeff:     -0.135D-02 0.343D-02 0.397D-01-0.201D-01 0.124D+00 0.216D+00
 Coeff:      0.639D+00
 Gap=     0.170 Goal=   None    Shift=    0.000
 RMSDP=1.47D-05 MaxDP=9.30D-04 DE=-7.81D-05 OVMax= 7.22D-04

 Cycle   8  Pass 0  IDiag  1:
 RMSU=  9.40D-06    CP:  9.71D-01  8.48D-01  7.22D-01  2.91D-01  8.87D-01
                    CP:  5.86D-01  7.32D-01
 E= -651.614387789236     Delta-E=       -0.000004712660 Rises=F Damp=F
 DIIS: error= 6.52D-05 at cycle   8 NSaved=   8.
 NSaved= 8 IEnMin= 8 EnMin= -651.614387789236     IErMin= 8 ErrMin= 6.52D-05
 ErrMax= 6.52D-05  0.00D+00 EMaxC= 1.00D-01 BMatC= 1.25D-06 BMatP= 6.95D-06
 IDIUse=1 WtCom= 1.00D+00 WtEn= 0.00D+00
 Coeff-Com: -0.175D-03-0.307D-03 0.135D-01-0.605D-02 0.387D-01 0.993D-01
 Coeff-Com:  0.413D+00 0.442D+00
 Coeff:     -0.175D-03-0.307D-03 0.135D-01-0.605D-02 0.387D-01 0.993D-01
 Coeff:      0.413D+00 0.442D+00
 Gap=     0.170 Goal=   None    Shift=    0.000
 RMSDP=5.51D-06 MaxDP=2.55D-04 DE=-4.71D-06 OVMax= 3.43D-04

 Initial convergence to 1.0D-05 achieved.  Increase integral accuracy.
 Cycle   9  Pass 1  IDiag  1:
 E= -651.614417624403     Delta-E=       -0.000029835167 Rises=F Damp=F
 DIIS: error= 3.05D-05 at cycle   1 NSaved=   1.
 NSaved= 1 IEnMin= 1 EnMin= -651.614417624403     IErMin= 1 ErrMin= 3.05D-05
 ErrMax= 3.05D-05  0.00D+00 EMaxC= 1.00D-01 BMatC= 2.37D-07 BMatP= 2.37D-07
 IDIUse=1 WtCom= 1.00D+00 WtEn= 0.00D+00
 Coeff-Com:  0.100D+01
 Coeff:      0.100D+01
 Gap=     0.170 Goal=   None    Shift=    0.000
 RMSDP=5.51D-06 MaxDP=2.55D-04 DE=-2.98D-05 OVMax= 3.03D-04

 Cycle  10  Pass 1  IDiag  1:
 RMSU=  2.56D-05    CP:  1.00D+00
 E= -651.614417573398     Delta-E=        0.000000051005 Rises=F Damp=F
 DIIS: error= 2.14D-05 at cycle   2 NSaved=   2.
 NSaved= 2 IEnMin= 1 EnMin= -651.614417624403     IErMin= 2 ErrMin= 2.14D-05
 ErrMax= 2.14D-05  0.00D+00 EMaxC= 1.00D-01 BMatC= 2.85D-07 BMatP= 2.37D-07
 IDIUse=1 WtCom= 1.00D+00 WtEn= 0.00D+00
 Coeff-Com:  0.531D+00 0.469D+00
 Coeff:      0.531D+00 0.469D+00
 Gap=     0.170 Goal=   None    Shift=    0.000
 RMSDP=3.73D-06 MaxDP=1.47D-04 DE= 5.10D-08 OVMax= 3.20D-04

 Cycle  11  Pass 1  IDiag  1:
 RMSU=  3.68D-06    CP:  1.00D+00  9.86D-01
 E= -651.614417776755     Delta-E=       -0.000000203357 Rises=F Damp=F
 DIIS: error= 1.24D-05 at cycle   3 NSaved=   3.
 NSaved= 3 IEnMin= 3 EnMin= -651.614417776755     IErMin= 3 ErrMin= 1.24D-05
 ErrMax= 1.24D-05  0.00D+00 EMaxC= 1.00D-01 BMatC= 7.44D-08 BMatP= 2.37D-07
 IDIUse=1 WtCom= 1.00D+00 WtEn= 0.00D+00
 Coeff-Com:  0.282D-01 0.334D+00 0.638D+00
 Coeff:      0.282D-01 0.334D+00 0.638D+00
 Gap=     0.170 Goal=   None    Shift=    0.000
 RMSDP=1.56D-06 MaxDP=9.17D-05 DE=-2.03D-07 OVMax= 1.07D-04

 Cycle  12  Pass 1  IDiag  1:
 RMSU=  7.63D-07    CP:  1.00D+00  1.00D+00  6.58D-01
 E= -651.614417839623     Delta-E=       -0.000000062868 Rises=F Damp=F
 DIIS: error= 3.36D-06 at cycle   4 NSaved=   4.
 NSaved= 4 IEnMin= 4 EnMin= -651.614417839623     IErMin= 4 ErrMin= 3.36D-06
 ErrMax= 3.36D-06  0.00D+00 EMaxC= 1.00D-01 BMatC= 7.06D-09 BMatP= 7.44D-08
 IDIUse=1 WtCom= 1.00D+00 WtEn= 0.00D+00
 Coeff-Com: -0.422D-02 0.198D+00 0.415D+00 0.392D+00
 Coeff:     -0.422D-02 0.198D+00 0.415D+00 0.392D+00
 Gap=     0.170 Goal=   None    Shift=    0.000
 RMSDP=4.29D-07 MaxDP=2.04D-05 DE=-6.29D-08 OVMax= 1.62D-05

 Cycle  13  Pass 1  IDiag  1:
 RMSU=  1.39D-07    CP:  1.00D+00  1.00D+00  6.71D-01  4.84D-01
 E= -651.614417845460     Delta-E=       -0.000000005836 Rises=F Damp=F
 DIIS: error= 8.81D-07 at cycle   5 NSaved=   5.
 NSaved= 5 IEnMin= 5 EnMin= -651.614417845460     IErMin= 5 ErrMin= 8.81D-07
 ErrMax= 8.81D-07  0.00D+00 EMaxC= 1.00D-01 BMatC= 2.44D-10 BMatP= 7.06D-09
 IDIUse=1 WtCom= 1.00D+00 WtEn= 0.00D+00
 Coeff-Com: -0.379D-02 0.112D+00 0.238D+00 0.246D+00 0.407D+00
 Coeff:     -0.379D-02 0.112D+00 0.238D+00 0.246D+00 0.407D+00
 Gap=     0.170 Goal=   None    Shift=    0.000
 RMSDP=8.27D-08 MaxDP=3.89D-06 DE=-5.84D-09 OVMax= 3.69D-06

 Cycle  14  Pass 1  IDiag  1:
 RMSU=  6.05D-08    CP:  1.00D+00  1.00D+00  6.70D-01  5.00D-01  6.19D-01
 E= -651.614417845657     Delta-E=       -0.000000000197 Rises=F Damp=F
 DIIS: error= 1.31D-07 at cycle   6 NSaved=   6.
 NSaved= 6 IEnMin= 6 EnMin= -651.614417845657     IErMin= 6 ErrMin= 1.31D-07
 ErrMax= 1.31D-07  0.00D+00 EMaxC= 1.00D-01 BMatC= 5.30D-12 BMatP= 2.44D-10
 IDIUse=1 WtCom= 1.00D+00 WtEn= 0.00D+00
 Coeff-Com: -0.124D-02 0.319D-01 0.679D-01 0.724D-01 0.176D+00 0.653D+00
 Coeff:     -0.124D-02 0.319D-01 0.679D-01 0.724D-01 0.176D+00 0.653D+00
 Gap=     0.170 Goal=   None    Shift=    0.000
 RMSDP=1.83D-08 MaxDP=9.58D-07 DE=-1.97D-10 OVMax= 1.26D-06

 Cycle  15  Pass 1  IDiag  1:
 RMSU=  1.65D-08    CP:  1.00D+00  1.00D+00  6.70D-01  4.98D-01  6.47D-01
                    CP:  9.00D-01
 E= -651.614417845663     Delta-E=       -0.000000000006 Rises=F Damp=F
 DIIS: error= 6.68D-08 at cycle   7 NSaved=   7.
 NSaved= 7 IEnMin= 7 EnMin= -651.614417845663     IErMin= 7 ErrMin= 6.68D-08
 ErrMax= 6.68D-08  0.00D+00 EMaxC= 1.00D-01 BMatC= 2.60D-12 BMatP= 5.30D-12
 IDIUse=1 WtCom= 1.00D+00 WtEn= 0.00D+00
 Coeff-Com: -0.316D-03 0.587D-02 0.124D-01 0.145D-01 0.618D-01 0.448D+00
 Coeff-Com:  0.457D+00
 Coeff:     -0.316D-03 0.587D-02 0.124D-01 0.145D-01 0.618D-01 0.448D+00
 Coeff:      0.457D+00
 Gap=     0.170 Goal=   None    Shift=    0.000
 RMSDP=9.21D-09 MaxDP=5.28D-07 DE=-6.14D-12 OVMax= 6.40D-07

 SCF Done:  E(RB3LYP) =  -651.614417846     A.U. after   15 cycles
            NFock= 15  Conv=0.92D-08     -V/T= 2.0094
 KE= 6.455573830943D+02 PE=-3.422530810290D+03 EE= 1.172603350075D+03
 Leave Link  502 at Wed Jan 14 09:35:19 2026, MaxMem=  4294967296 cpu:             178.8 elap:              11.2
 (Enter /root//g16/l508.exe)
 QCSCF skips out because SCF is already converged.
 Leave Link  508 at Wed Jan 14 09:35:19 2026, MaxMem=  4294967296 cpu:               0.0 elap:               0.0
 (Enter /root//g16/l601.exe)
 Copying SCF densities to generalized density rwf, IOpCl= 0 IROHF=0.

 **********************************************************************

            Population analysis using the SCF density.

 **********************************************************************

 Orbital symmetries:
       Occupied  (A) (A) (A) (A) (A) (A) (A) (A) (A) (A) (A) (A)
                 (A) (A) (A) (A) (A) (A) (A) (A) (A) (A) (A) (A)
                 (A) (A) (A) (A) (A) (A) (A) (A) (A) (A) (A) (A)
                 (A) (A) (A) (A) (A) (A) (A) (A) (A) (A) (A) (A)
                 (A) (A) (A)
       Virtual   (A) (A) (A) (A) (A) (A) (A) (A) (A) (A) (A) (A)
                 (A) (A) (A) (A) (A) (A) (A) (A) (A) (A) (A) (A)
                 (A) (A) (A) (A) (A) (A) (A) (A) (A) (A) (A) (A)
                 (A) (A) (A) (A) (A) (A) (A) (A) (A) (A) (A) (A)
                 (A) (A) (A) (A) (A) (A) (A) (A) (A) (A) (A) (A)
                 (A) (A) (A) (A) (A) (A) (A) (A) (A) (A) (A) (A)
                 (A) (A) (A) (A) (A) (A) (A) (A) (A) (A) (A) (A)
                 (A) (A) (A) (A) (A) (A) (A) (A) (A) (A) (A) (A)
                 (A) (A) (A) (A) (A) (A) (A) (A) (A) (A) (A) (A)
                 (A) (A) (A) (A) (A) (A) (A) (A) (A) (A) (A) (A)
                 (A) (A) (A) (A) (A) (A) (A) (A) (A) (A) (A) (A)
                 (A) (A) (A) (A) (A) (A) (A) (A) (A) (A) (A) (A)
                 (A) (A) (A) (A) (A) (A) (A) (A) (A) (A) (A) (A)
                 (A) (A) (A) (A) (A) (A) (A) (A) (A) (A) (A) (A)
                 (A) (A) (A) (A) (A) (A) (A) (A) (A) (A) (A) (A)
                 (A) (A) (A) (A) (A) (A) (A) (A) (A) (A) (A) (A)
                 (A) (A) (A) (A) (A) (A) (A) (A) (A) (A) (A) (A)
                 (A)
 The electronic state is 1-A.
 Alpha  occ. eigenvalues --  -19.15060 -19.13905 -19.11917 -10.28562 -10.26636
 Alpha  occ. eigenvalues --  -10.26310 -10.24214 -10.22446 -10.21479 -10.21468
 Alpha  occ. eigenvalues --  -10.21302 -10.20858 -10.19760 -10.19699  -1.06818
 Alpha  occ. eigenvalues --   -1.04885  -1.02322  -0.86095  -0.80434  -0.79858
 Alpha  occ. eigenvalues --   -0.76853  -0.73152  -0.64966  -0.64654  -0.62413
 Alpha  occ. eigenvalues --   -0.58388  -0.55121  -0.53624  -0.52571  -0.51599
 Alpha  occ. eigenvalues --   -0.49046  -0.48231  -0.46347  -0.45335  -0.43487
 Alpha  occ. eigenvalues --   -0.43094  -0.42580  -0.42180  -0.41171  -0.39859
 Alpha  occ. eigenvalues --   -0.38672  -0.37657  -0.37314  -0.36546  -0.36465
 Alpha  occ. eigenvalues --   -0.35312  -0.33561  -0.29955  -0.27774  -0.26300
 Alpha  occ. eigenvalues --   -0.23710
 Alpha virt. eigenvalues --   -0.06674  -0.03182   0.03010   0.04407   0.05300
 Alpha virt. eigenvalues --    0.07028   0.08326   0.09488   0.11073   0.11429
 Alpha virt. eigenvalues --    0.12012   0.12489   0.12877   0.14497   0.14619
 Alpha virt. eigenvalues --    0.15213   0.17099   0.18470   0.19909   0.20413
 Alpha virt. eigenvalues --    0.21750   0.23876   0.24506   0.25477   0.26849
 Alpha virt. eigenvalues --    0.28182   0.29390   0.32167   0.33871   0.35271
 Alpha virt. eigenvalues --    0.37389   0.40611   0.42262   0.43001   0.43095
 Alpha virt. eigenvalues --    0.46239   0.47337   0.48563   0.50236   0.50802
 Alpha virt. eigenvalues --    0.52161   0.53756   0.55022   0.55847   0.57091
 Alpha virt. eigenvalues --    0.57384   0.58315   0.59130   0.60236   0.60464
 Alpha virt. eigenvalues --    0.61178   0.62399   0.63345   0.63631   0.64513
 Alpha virt. eigenvalues --    0.65101   0.65630   0.66246   0.66436   0.67053
 Alpha virt. eigenvalues --    0.67520   0.67781   0.68084   0.69152   0.69591
 Alpha virt. eigenvalues --    0.70236   0.71280   0.72263   0.74189   0.75015
 Alpha virt. eigenvalues --    0.77358   0.79369   0.82276   0.83955   0.85276
 Alpha virt. eigenvalues --    0.85986   0.88219   0.91921   0.94395   0.95515
 Alpha virt. eigenvalues --    0.98247   0.99320   1.02958   1.06662   1.09161
 Alpha virt. eigenvalues --    1.09925   1.14227   1.14624   1.16167   1.17506
 Alpha virt. eigenvalues --    1.19450   1.20968   1.24743   1.26684   1.27738
 Alpha virt. eigenvalues --    1.30153   1.31402   1.35771   1.38977   1.40995
 Alpha virt. eigenvalues --    1.41787   1.43572   1.45059   1.48428   1.52310
 Alpha virt. eigenvalues --    1.54873   1.55279   1.56371   1.60472   1.62777
 Alpha virt. eigenvalues --    1.64838   1.65935   1.67089   1.69190   1.70323
 Alpha virt. eigenvalues --    1.71271   1.72407   1.73899   1.74647   1.75573
 Alpha virt. eigenvalues --    1.76722   1.77861   1.78677   1.79402   1.80009
 Alpha virt. eigenvalues --    1.81571   1.82626   1.82931   1.84215   1.85371
 Alpha virt. eigenvalues --    1.86329   1.87905   1.88710   1.89564   1.90497
 Alpha virt. eigenvalues --    1.92266   1.93372   1.94508   1.96086   1.97147
 Alpha virt. eigenvalues --    1.97955   2.00197   2.01687   2.04822   2.06128
 Alpha virt. eigenvalues --    2.08000   2.09640   2.12035   2.13681   2.15748
 Alpha virt. eigenvalues --    2.17415   2.18931   2.21374   2.23665   2.23848
 Alpha virt. eigenvalues --    2.26728   2.29433   2.30229   2.31183   2.33217
 Alpha virt. eigenvalues --    2.36509   2.36877   2.39512   2.42328   2.46201
 Alpha virt. eigenvalues --    2.47362   2.51363   2.53041   2.55108   2.57252
 Alpha virt. eigenvalues --    2.59575   2.60117   2.63761   2.66582   2.68492
 Alpha virt. eigenvalues --    2.69121   2.70866   2.73209   2.76170   2.76917
 Alpha virt. eigenvalues --    2.78688   2.81062   2.83928   2.87283   2.89117
 Alpha virt. eigenvalues --    2.90003   2.91140   2.92754   2.94540   2.96957
 Alpha virt. eigenvalues --    3.00148   3.02619   3.04741   3.05889   3.08295
 Alpha virt. eigenvalues --    3.13781   3.16783   3.18578   3.22955   3.31416
 Alpha virt. eigenvalues --    3.38848   3.41283   3.58286   3.62899   3.64809
          Condensed to atoms (all electrons):
               1          2          3          4          5          6
     1  O    7.613903   0.728406  -0.094461   0.006594  -0.000104   0.000003
     2  C    0.728406   4.877043   0.178123   0.092149   0.006946  -0.000413
     3  C   -0.094461   0.178123   5.486978   0.237774  -0.054742  -0.007356
     4  C    0.006594   0.092149   0.237774   5.545581   0.393224  -0.053674
     5  C   -0.000104   0.006946  -0.054742   0.393224   4.560675   0.436525
     6  C    0.000003  -0.000413  -0.007356  -0.053674   0.436525   4.547341
     7  C    0.000000  -0.000068  -0.002827  -0.017364  -0.070423   0.439119
     8  C    0.000023   0.003286   0.001759  -0.004017  -0.022482  -0.032605
     9  O    0.000003  -0.000329   0.001481  -0.004637   0.000536  -0.006287
    10  C    0.000079  -0.018609  -0.014465  -0.019915   0.013286  -0.006266
    11  C    0.000082  -0.050838   0.025032  -0.053078  -0.001735   0.000060
    12  C   -0.085484   0.206327  -0.168325  -0.004524  -0.000283   0.000006
    13  O    0.001430  -0.028526   0.002586  -0.052572   0.003354   0.000127
    14  C    0.000682  -0.038912   0.004029   0.197445  -0.071189  -0.003916
    15  H    0.005995  -0.044497   0.408050  -0.067840  -0.017944  -0.000677
    16  H   -0.000004   0.000931  -0.018084  -0.001121   0.336105  -0.005024
    17  H    0.000002  -0.000886   0.011212  -0.012741   0.343604  -0.013313
    18  H   -0.000000   0.000023   0.000155   0.009351  -0.019633   0.357974
    19  H   -0.000001  -0.000790   0.005898  -0.012687  -0.006878   0.361093
    20  H   -0.000000  -0.000111   0.000777  -0.014154   0.003637  -0.022789
    21  H    0.000000   0.000007  -0.000067   0.001225   0.009185   0.008998
    22  H   -0.000010  -0.000037   0.000497   0.006724  -0.000397   0.000446
    23  H    0.002795   0.000774   0.000786   0.000901   0.000079   0.000056
    24  H   -0.000230   0.006337  -0.001675   0.001374   0.000002  -0.000027
    25  H    0.008925  -0.016347   0.013267   0.000622   0.000089   0.000002
    26  H    0.000015   0.000852   0.008604  -0.032416  -0.008145  -0.001517
               7          8          9         10         11         12
     1  O    0.000000   0.000023   0.000003   0.000079   0.000082  -0.085484
     2  C   -0.000068   0.003286  -0.000329  -0.018609  -0.050838   0.206327
     3  C   -0.002827   0.001759   0.001481  -0.014465   0.025032  -0.168325
     4  C   -0.017364  -0.004017  -0.004637  -0.019915  -0.053078  -0.004524
     5  C   -0.070423  -0.022482   0.000536   0.013286  -0.001735  -0.000283
     6  C    0.439119  -0.032605  -0.006287  -0.006266   0.000060   0.000006
     7  C    4.867886   0.352154  -0.084805  -0.193661   0.012327  -0.000126
     8  C    0.352154   4.919771   0.744936  -0.030090   0.009080  -0.004683
     9  O   -0.084805   0.744936   7.605059  -0.139034   0.010041  -0.000469
    10  C   -0.193661  -0.030090  -0.139034   5.979897   0.214068  -0.055730
    11  C    0.012327   0.009080   0.010041   0.214068   4.731503   0.346661
    12  C   -0.000126  -0.004683  -0.000469  -0.055730   0.346661   5.108670
    13  O   -0.000451   0.003787  -0.000020  -0.057121  -0.062801   0.262060
    14  C    0.026852   0.037010   0.006039   0.161389  -0.020645  -0.049627
    15  H    0.000138   0.000713   0.000058  -0.001922  -0.000670   0.017009
    16  H    0.010003   0.000575  -0.000013  -0.001295   0.000064  -0.000227
    17  H   -0.009624  -0.003182  -0.000041   0.001937  -0.000055   0.000412
    18  H   -0.011905   0.007737  -0.000118  -0.000839   0.000035  -0.000008
    19  H   -0.041742  -0.002849   0.008652   0.003442  -0.000064   0.000120
    20  H    0.321407   0.001329   0.004011  -0.001314   0.000665  -0.000019
    21  H    0.301176   0.004554   0.004612   0.019054  -0.000791   0.000011
    22  H   -0.002251   0.020329   0.002145   0.231570   0.023138  -0.002283
    23  H    0.003253  -0.015534   0.024830  -0.000887   0.326443  -0.003895
    24  H   -0.000440   0.006357   0.000388   0.012996   0.303507   0.015616
    25  H    0.000017  -0.000802  -0.000025   0.011412  -0.009263   0.320819
    26  H    0.003415  -0.008371  -0.000196   0.001389   0.010467   0.003890
              13         14         15         16         17         18
     1  O    0.001430   0.000682   0.005995  -0.000004   0.000002  -0.000000
     2  C   -0.028526  -0.038912  -0.044497   0.000931  -0.000886   0.000023
     3  C    0.002586   0.004029   0.408050  -0.018084   0.011212   0.000155
     4  C   -0.052572   0.197445  -0.067840  -0.001121  -0.012741   0.009351
     5  C    0.003354  -0.071189  -0.017944   0.336105   0.343604  -0.019633
     6  C    0.000127  -0.003916  -0.000677  -0.005024  -0.013313   0.357974
     7  C   -0.000451   0.026852   0.000138   0.010003  -0.009624  -0.011905
     8  C    0.003787   0.037010   0.000713   0.000575  -0.003182   0.007737
     9  O   -0.000020   0.006039   0.000058  -0.000013  -0.000041  -0.000118
    10  C   -0.057121   0.161389  -0.001922  -0.001295   0.001937  -0.000839
    11  C   -0.062801  -0.020645  -0.000670   0.000064  -0.000055   0.000035
    12  C    0.262060  -0.049627   0.017009  -0.000227   0.000412  -0.000008
    13  O    7.980702   0.319803  -0.000898  -0.000222   0.000271   0.000003
    14  C    0.319803   4.824799   0.011264   0.012095  -0.013591  -0.000035
    15  H   -0.000898   0.011264   0.705557   0.006223   0.000377  -0.000099
    16  H   -0.000222   0.012095   0.006223   0.697418  -0.030670  -0.002674
    17  H    0.000271  -0.013591   0.000377  -0.030670   0.717740  -0.011353
    18  H    0.000003  -0.000035  -0.000099  -0.002674  -0.011353   0.700767
    19  H    0.000001  -0.001414   0.001014  -0.010812   0.008641  -0.026393
    20  H    0.000093   0.004822  -0.000009   0.000003   0.004922  -0.005810
    21  H    0.000002  -0.001826  -0.000007  -0.000492   0.000119  -0.012045
    22  H    0.001828   0.022796   0.000037   0.000037  -0.000127   0.000044
    23  H    0.003682  -0.003383  -0.000295  -0.000007  -0.000009   0.000007
    24  H    0.002295  -0.000487   0.000046  -0.000000   0.000003  -0.000000
    25  H   -0.017932   0.000614  -0.000586  -0.000003   0.000002   0.000000
    26  H   -0.021842   0.338532  -0.000378  -0.000201   0.008205   0.000023
              19         20         21         22         23         24
     1  O   -0.000001  -0.000000   0.000000  -0.000010   0.002795  -0.000230
     2  C   -0.000790  -0.000111   0.000007  -0.000037   0.000774   0.006337
     3  C    0.005898   0.000777  -0.000067   0.000497   0.000786  -0.001675
     4  C   -0.012687  -0.014154   0.001225   0.006724   0.000901   0.001374
     5  C   -0.006878   0.003637   0.009185  -0.000397   0.000079   0.000002
     6  C    0.361093  -0.022789   0.008998   0.000446   0.000056  -0.000027
     7  C   -0.041742   0.321407   0.301176  -0.002251   0.003253  -0.000440
     8  C   -0.002849   0.001329   0.004554   0.020329  -0.015534   0.006357
     9  O    0.008652   0.004011   0.004612   0.002145   0.024830   0.000388
    10  C    0.003442  -0.001314   0.019054   0.231570  -0.000887   0.012996
    11  C   -0.000064   0.000665  -0.000791   0.023138   0.326443   0.303507
    12  C    0.000120  -0.000019   0.000011  -0.002283  -0.003895   0.015616
    13  O    0.000001   0.000093   0.000002   0.001828   0.003682   0.002295
    14  C   -0.001414   0.004822  -0.001826   0.022796  -0.003383  -0.000487
    15  H    0.001014  -0.000009  -0.000007   0.000037  -0.000295   0.000046
    16  H   -0.010812   0.000003  -0.000492   0.000037  -0.000007  -0.000000
    17  H    0.008641   0.004922   0.000119  -0.000127  -0.000009   0.000003
    18  H   -0.026393  -0.005810  -0.012045   0.000044   0.000007  -0.000000
    19  H    0.682737   0.010395  -0.002955  -0.000073  -0.000185   0.000006
    20  H    0.010395   0.723530  -0.024201   0.001669  -0.000180  -0.000011
    21  H   -0.002955  -0.024201   0.674154  -0.001132  -0.000081   0.000023
    22  H   -0.000073   0.001669  -0.001132   0.699043   0.005049  -0.017162
    23  H   -0.000185  -0.000180  -0.000081   0.005049   0.646429  -0.022178
    24  H    0.000006  -0.000011   0.000023  -0.017162  -0.022178   0.702902
    25  H   -0.000000   0.000002  -0.000000  -0.000085   0.004841  -0.017743
    26  H    0.000063  -0.000314   0.000020  -0.014779  -0.000515  -0.000227
              25         26
     1  O    0.008925   0.000015
     2  C   -0.016347   0.000852
     3  C    0.013267   0.008604
     4  C    0.000622  -0.032416
     5  C    0.000089  -0.008145
     6  C    0.000002  -0.001517
     7  C    0.000017   0.003415
     8  C   -0.000802  -0.008371
     9  O   -0.000025  -0.000196
    10  C    0.011412   0.001389
    11  C   -0.009263   0.010467
    12  C    0.320819   0.003890
    13  O   -0.017932  -0.021842
    14  C    0.000614   0.338532
    15  H   -0.000586  -0.000378
    16  H   -0.000003  -0.000201
    17  H    0.000002   0.008205
    18  H    0.000000   0.000023
    19  H   -0.000000   0.000063
    20  H    0.000002  -0.000314
    21  H   -0.000000   0.000020
    22  H   -0.000085  -0.014779
    23  H    0.004841  -0.000515
    24  H   -0.017743  -0.000227
    25  H    0.699578  -0.000401
    26  H   -0.000401   0.725055
 Mulliken charges:
               1
     1  O   -0.188643
     2  C    0.099158
     3  C   -0.025004
     4  C   -0.142224
     5  C    0.166708
     6  C    0.002112
     7  C    0.097940
     8  C    0.011213
     9  O   -0.176818
    10  C   -0.109371
    11  C    0.186766
    12  C    0.094080
    13  O   -0.339639
    14  C    0.236855
    15  H   -0.020659
    16  H    0.007396
    17  H   -0.001856
    18  H    0.014794
    19  H    0.024780
    20  H   -0.008352
    21  H    0.020458
    22  H    0.022983
    23  H    0.027222
    24  H    0.008328
    25  H    0.003000
    26  H   -0.011226
 Sum of Mulliken charges =  -0.00000
 Mulliken charges with hydrogens summed into heavy atoms:
               1
     1  O   -0.188643
     2  C    0.099158
     3  C   -0.045663
     4  C   -0.142224
     5  C    0.172247
     6  C    0.041687
     7  C    0.110045
     8  C    0.011213
     9  O   -0.176818
    10  C   -0.086388
    11  C    0.222316
    12  C    0.097080
    13  O   -0.339639
    14  C    0.225629
 Electronic spatial extent (au):  <R**2>=           2162.9286
 Charge=             -0.0000 electrons
 Dipole moment (field-independent basis, Debye):
    X=             -4.1622    Y=             -0.1484    Z=              3.1381  Tot=              5.2147
 Quadrupole moment (field-independent basis, Debye-Ang):
   XX=            -84.1612   YY=            -79.4246   ZZ=            -89.2744
   XY=              6.5562   XZ=              0.6902   YZ=              4.0572
 Traceless Quadrupole moment (field-independent basis, Debye-Ang):
   XX=              0.1256   YY=              4.8621   ZZ=             -4.9877
   XY=              6.5562   XZ=              0.6902   YZ=              4.0572
 Octapole moment (field-independent basis, Debye-Ang**2):
  XXX=            -26.6368  YYY=              0.5491  ZZZ=              4.3416  XYY=              2.4697
  XXY=             11.2294  XXZ=             17.5731  XZZ=            -11.8478  YZZ=             -2.4825
  YYZ=              5.0380  XYZ=             -7.5225
 Hexadecapole moment (field-independent basis, Debye-Ang**3):
 XXXX=          -1545.5097 YYYY=           -746.9735 ZZZZ=           -523.8303 XXXY=             22.7830
 XXXZ=             65.6958 YYYX=              1.0476 YYYZ=             18.2646 ZZZX=             -9.5748
 ZZZY=              3.5914 XXYY=           -376.8493 XXZZ=           -383.0045 YYZZ=           -217.7091
 XXYZ=            -10.9744 YYXZ=             -2.8176 ZZXY=             15.7044
 N-N= 9.527556592742D+02 E-N=-3.422530799916D+03  KE= 6.455573830943D+02
 No NMR shielding tensors so no spin-rotation constants.
 Leave Link  601 at Wed Jan 14 09:35:19 2026, MaxMem=  4294967296 cpu:               1.0 elap:               0.1
 (Enter /root//g16/l701.exe)
 ... and contract with generalized density number  0.
 Compute integral first derivatives.
 R6Disp: Adding Grimme-D3(BJ) dispersion energy 1st derivatives to the gradient.
   1 Symmetry operations used in ECPInt.
 ECPInt:  NShTT=    7260 NPrTT=   26324 LenC2=    7150 LenP2D=   19951.
 LDataN:  DoStor=T MaxTD1= 5 Len=  102
 Leave Link  701 at Wed Jan 14 09:35:19 2026, MaxMem=  4294967296 cpu:               1.3 elap:               0.1
 (Enter /root//g16/l702.exe)
 L702 exits ... SP integral derivatives will be done elsewhere.
 Leave Link  702 at Wed Jan 14 09:35:19 2026, MaxMem=  4294967296 cpu:               0.1 elap:               0.0
 (Enter /root//g16/l703.exe)
 Integral derivatives from FoFJK, PRISM(SPDF).
 Compute integral first derivatives, UseDBF=F ICtDFT=           0.
 Calling FoFJK, ICntrl=      2127 FMM=F ISym2X=0 I1Cent= 0 IOpClX= 0 NMat=1 NMatS=1 NMatT=0.
 FoFJK:  IHMeth= 1 ICntrl=    2127 DoSepK=F KAlg= 0 I1Cent=           0 FoldK=F
 IRaf=         0 NMat=       1 IRICut=       1 DoRegI=T DoRafI=F ISym2E= 0 IDoP0=0 IntGTp=1.
 FoFCou: FMM=F IPFlag=           0 FMFlag=      100000 FMFlg1=         800
         NFxFlg=           0 DoJE=F BraDBF=F KetDBF=F FulRan=T
         wScrn=  0.000000 ICntrl=      2127 IOpCl=  0 I1Cent=           0 NGrid=           0
         NMat0=    1 NMatS0=      1 NMatT0=    0 NMatD0=    1 NMtDS0=    0 NMtDT0=    0
 Symmetry not used in FoFCou.
 Leave Link  703 at Wed Jan 14 09:35:22 2026, MaxMem=  4294967296 cpu:              48.7 elap:               3.1
 (Enter /root//g16/l716.exe)
 Dipole        =-1.63751676D+00-5.83745933D-02 1.23461971D+00
 ***** Axes restored to original set *****
 -------------------------------------------------------------------
 Center     Atomic                   Forces (Hartrees/Bohr)
 Number     Number              X              Y              Z
 -------------------------------------------------------------------
      1        8          -0.000465070    0.000094756   -0.000002574
      2        6           0.010349777   -0.002402262   -0.000643345
      3        6           0.000569509    0.003359789    0.001209648
      4        6          -0.000316930    0.008375936   -0.009014093
      5        6          -0.000316202   -0.005147523    0.008363555
      6        6           0.001104202    0.000067797   -0.009032969
      7        6          -0.000981920    0.003512167    0.011453869
      8        6           0.000251334   -0.008012637   -0.007070144
      9        8          -0.001622768   -0.000156930    0.005024632
     10        6           0.003878329   -0.001251945    0.004136857
     11        6           0.001572598    0.004706468   -0.001289631
     12        6           0.001156134   -0.005653008    0.003848453
     13        8          -0.000873754    0.001108826   -0.004160432
     14        6           0.002576122   -0.002129600   -0.000059451
     15        1          -0.001118519    0.006001798    0.007310423
     16        1           0.000452088    0.006743563    0.001619153
     17        1          -0.002136376    0.002509800   -0.006470035
     18        1          -0.006883930    0.003161619    0.000907376
     19        1           0.000145227   -0.000227115    0.006204717
     20        1          -0.001810195   -0.000704707   -0.007910237
     21        1          -0.004326686   -0.004110830    0.000972199
     22        1          -0.002905601   -0.003208898   -0.004745691
     23        1          -0.000837862   -0.002972080    0.004693813
     24        1           0.001863672   -0.005592798   -0.002925468
     25        1           0.004878459    0.000135003    0.000948873
     26        1          -0.004201639    0.001792811   -0.003369500
 -------------------------------------------------------------------
 Cartesian Forces:  Max     0.011453869 RMS     0.004307455
 Leave Link  716 at Wed Jan 14 09:35:22 2026, MaxMem=  4294967296 cpu:               0.2 elap:               0.0
 (Enter /root//g16/l103.exe)

 GradGradGradGradGradGradGradGradGradGradGradGradGradGradGradGradGradGrad
 Berny optimization.
 FormGI is forming the generalized inverse of G from B-inverse, IUseBI=4.
 Internal  Forces:  Max     0.011480169 RMS     0.002959535
 Search for a local minimum.
 Step number   1 out of a maximum of  156
 All quantities printed in internal units (Hartrees-Bohrs-Radians)
 RMS Force = .29595D-02 SwitMx=.10000D-02 MixMth= 1
 Mixed Optimization -- RFO/linear search
 Second derivative matrix not updated -- first step.
 ITU=  0
     Eigenvalues ---    0.00413   0.00547   0.00593   0.00759   0.01254
     Eigenvalues ---    0.01470   0.01968   0.02073   0.02188   0.02977
     Eigenvalues ---    0.03320   0.03368   0.03641   0.04673   0.04695
     Eigenvalues ---    0.04745   0.05054   0.05099   0.05219   0.05640
     Eigenvalues ---    0.05810   0.06194   0.06483   0.06685   0.06811
     Eigenvalues ---    0.07371   0.07553   0.08164   0.08184   0.08686
     Eigenvalues ---    0.08758   0.09023   0.09695   0.10362   0.10936
     Eigenvalues ---    0.12359   0.14430   0.15991   0.16179   0.18167
     Eigenvalues ---    0.22127   0.22839   0.24349   0.24900   0.24996
     Eigenvalues ---    0.25740   0.27134   0.27636   0.28091   0.28930
     Eigenvalues ---    0.29547   0.29709   0.30570   0.32633   0.33362
     Eigenvalues ---    0.34458   0.34627   0.34637   0.34638   0.34749
     Eigenvalues ---    0.34760   0.34761   0.34767   0.34807   0.34909
     Eigenvalues ---    0.35050   0.35950   0.38112   0.38966   0.53533
     Eigenvalues ---    0.97174   1.01412
 RFO step:  Lambda=-6.62993157D-03 EMin= 4.12564833D-03
 Linear search not attempted -- first point.
 Iteration  1 RMS(Cart)=  0.03238608 RMS(Int)=  0.00044971
 Iteration  2 RMS(Cart)=  0.00065165 RMS(Int)=  0.00021060
 Iteration  3 RMS(Cart)=  0.00000035 RMS(Int)=  0.00021060
 ITry= 1 IFail=0 DXMaxC= 1.28D-01 DCOld= 1.00D+10 DXMaxT= 3.00D-01 DXLimC= 3.00D+00 Rises=F
 Variable       Old X    -DE/DX   Delta X   Delta X   Delta X     New X
                                 (Linear)    (Quad)   (Total)
    R1        2.29792  -0.00032   0.00000  -0.00033  -0.00033   2.29759
    R2        2.76051   0.01148   0.00000   0.03072   0.03078   2.79128
    R3        2.88568   0.00391   0.00000   0.01280   0.01283   2.89851
    R4        2.53402   0.01096   0.00000   0.01912   0.01915   2.55317
    R5        2.04160   0.00950   0.00000   0.02596   0.02596   2.06756
    R6        2.81969   0.00737   0.00000   0.02190   0.02196   2.84164
    R7        2.85028   0.00754   0.00000   0.02487   0.02488   2.87515
    R8        2.90639   0.00696   0.00000   0.02235   0.02252   2.92892
    R9        2.06065   0.00671   0.00000   0.01895   0.01895   2.07961
   R10        2.06285   0.00714   0.00000   0.02023   0.02023   2.08308
   R11        2.90324   0.00673   0.00000   0.02087   0.02090   2.92414
   R12        2.06067   0.00743   0.00000   0.02097   0.02097   2.08163
   R13        2.06268   0.00610   0.00000   0.01728   0.01728   2.07996
   R14        2.85977   0.00730   0.00000   0.02294   0.02294   2.88271
   R15        2.05824   0.00804   0.00000   0.02259   0.02259   2.08083
   R16        2.06267   0.00571   0.00000   0.01618   0.01618   2.07885
   R17        2.28078   0.00451   0.00000   0.00441   0.00441   2.28520
   R18        2.87191   0.00600   0.00000   0.01941   0.01926   2.89117
   R19        2.89906   0.00565   0.00000   0.01752   0.01758   2.91664
   R20        2.95274   0.00665   0.00000   0.02651   0.02640   2.97914
   R21        2.06564   0.00631   0.00000   0.01796   0.01796   2.08360
   R22        2.92907   0.00446   0.00000   0.01464   0.01464   2.94371
   R23        2.05989   0.00515   0.00000   0.01451   0.01451   2.07440
   R24        2.05594   0.00657   0.00000   0.01839   0.01839   2.07434
   R25        2.66964   0.00673   0.00000   0.01584   0.01578   2.68542
   R26        2.06085   0.00438   0.00000   0.01237   0.01237   2.07322
   R27        2.65908   0.00343   0.00000   0.00833   0.00821   2.66729
   R28        2.06054   0.00530   0.00000   0.01495   0.01495   2.07549
    A1        2.16489  -0.00100   0.00000  -0.00562  -0.00569   2.15919
    A2        2.13482  -0.00038   0.00000  -0.00301  -0.00306   2.13177
    A3        1.98182   0.00134   0.00000   0.00782   0.00784   1.98966
    A4        2.10334  -0.00181   0.00000  -0.00445  -0.00453   2.09881
    A5        2.04527   0.00090   0.00000   0.00199   0.00186   2.04713
    A6        2.13416   0.00089   0.00000   0.00170   0.00156   2.13573
    A7        2.16888   0.00140   0.00000   0.00058   0.00057   2.16945
    A8        2.05289  -0.00143   0.00000  -0.00566  -0.00569   2.04720
    A9        2.05851  -0.00009   0.00000   0.00185   0.00098   2.05949
   A10        1.92204   0.00070   0.00000   0.02750   0.02719   1.94923
   A11        1.92141  -0.00054   0.00000  -0.00091  -0.00110   1.92031
   A12        1.91536   0.00021   0.00000  -0.00721  -0.00723   1.90814
   A13        1.89871   0.00173   0.00000   0.00901   0.00884   1.90755
   A14        1.90686  -0.00123   0.00000  -0.01130  -0.01119   1.89567
   A15        1.89916  -0.00088   0.00000  -0.01758  -0.01762   1.88154
   A16        1.95961   0.00102   0.00000   0.02498   0.02453   1.98414
   A17        1.89893   0.00071   0.00000   0.00344   0.00332   1.90224
   A18        1.91126  -0.00052   0.00000  -0.00378  -0.00355   1.90770
   A19        1.90681  -0.00032   0.00000  -0.00032  -0.00032   1.90649
   A20        1.89591  -0.00035   0.00000  -0.00960  -0.00964   1.88627
   A21        1.89013  -0.00060   0.00000  -0.01616  -0.01625   1.87388
   A22        1.90717   0.00248   0.00000   0.02114   0.02040   1.92758
   A23        1.92637  -0.00158   0.00000  -0.00536  -0.00526   1.92111
   A24        1.89140   0.00186   0.00000   0.01357   0.01385   1.90525
   A25        1.94330  -0.00113   0.00000  -0.00594  -0.00569   1.93760
   A26        1.88354  -0.00092   0.00000  -0.00785  -0.00801   1.87553
   A27        1.91085  -0.00061   0.00000  -0.01503  -0.01516   1.89569
   A28        2.13089  -0.00406   0.00000  -0.02248  -0.02322   2.10767
   A29        2.01423   0.00213   0.00000   0.02061   0.01961   2.03384
   A30        2.13795   0.00191   0.00000   0.00082  -0.00002   2.13793
   A31        1.98983   0.00145   0.00000   0.01534   0.01525   2.00508
   A32        1.94777  -0.00084   0.00000   0.01915   0.01861   1.96639
   A33        1.88235  -0.00071   0.00000  -0.01914  -0.01882   1.86353
   A34        1.78612   0.00025   0.00000  -0.00237  -0.00238   1.78375
   A35        1.94200   0.00042   0.00000   0.00169   0.00162   1.94362
   A36        1.91476  -0.00058   0.00000  -0.01416  -0.01408   1.90068
   A37        1.79601   0.00075   0.00000   0.00328   0.00307   1.79908
   A38        1.94313  -0.00074   0.00000   0.00101   0.00092   1.94405
   A39        1.94805  -0.00024   0.00000  -0.00924  -0.00926   1.93879
   A40        1.95237   0.00088   0.00000   0.02161   0.02154   1.97391
   A41        1.92040  -0.00019   0.00000  -0.00704  -0.00692   1.91348
   A42        1.90268  -0.00039   0.00000  -0.00881  -0.00882   1.89385
   A43        1.88915   0.00442   0.00000   0.03086   0.03072   1.91986
   A44        1.93054  -0.00169   0.00000  -0.01470  -0.01462   1.91592
   A45        1.93264  -0.00226   0.00000  -0.01898  -0.01910   1.91354
   A46        1.82168  -0.00195   0.00000  -0.00946  -0.00931   1.81237
   A47        1.98392  -0.00018   0.00000   0.00363   0.00381   1.98773
   A48        1.90311   0.00163   0.00000   0.00870   0.00851   1.91162
   A49        1.80631   0.00179   0.00000   0.00582   0.00564   1.81195
   A50        1.87534   0.00353   0.00000   0.03449   0.03436   1.90971
   A51        1.92472   0.00033   0.00000  -0.00039  -0.00022   1.92450
   A52        1.96169  -0.00203   0.00000  -0.01793  -0.01789   1.94380
   A53        1.82632  -0.00187   0.00000  -0.01326  -0.01324   1.81308
   A54        1.99061  -0.00143   0.00000  -0.01154  -0.01145   1.97917
   A55        1.88038   0.00148   0.00000   0.00874   0.00861   1.88900
    D1       -3.03843   0.00002   0.00000   0.01066   0.01080  -3.02763
    D2        0.07309  -0.00074   0.00000  -0.01697  -0.01693   0.05616
    D3        0.04243  -0.00070   0.00000  -0.00411  -0.00404   0.03840
    D4       -3.12924  -0.00146   0.00000  -0.03174  -0.03177   3.12218
    D5        1.69525   0.00035   0.00000  -0.00730  -0.00723   1.68802
    D6       -2.60210  -0.00040   0.00000  -0.00913  -0.00923  -2.61134
    D7       -0.49025  -0.00098   0.00000  -0.02063  -0.02041  -0.51066
    D8       -1.38679   0.00108   0.00000   0.00730   0.00746  -1.37933
    D9        0.59904   0.00033   0.00000   0.00546   0.00546   0.60449
   D10        2.71089  -0.00025   0.00000  -0.00604  -0.00572   2.70517
   D11        3.01526  -0.00216   0.00000  -0.04957  -0.04967   2.96559
   D12       -0.04261  -0.00045   0.00000  -0.00320  -0.00328  -0.04589
   D13       -0.09469  -0.00135   0.00000  -0.02049  -0.02049  -0.11518
   D14        3.13063   0.00036   0.00000   0.02588   0.02590  -3.12666
[...]
 51637,0.00258001,-0.00045024,0.00122347,0.00201198,-0.00273490,0.02345
 370,-0.05995626,0.00447679,-0.05337484,-0.00030429,0.00063331,-0.00100
 526,-0.00009841,0.00063270,0.00120062,-0.00012300,-0.00027298,0.000254
 51,-0.00006573,-0.00002034,0.00007765,0.00001381,0.00005519,-0.0000306
 1,0.00001683,-0.00004735,0.00005640,-0.00000181,0.00006342,-0.00004663
 ,0.00014680,0.00016041,0.00009926,-0.00005329,-0.00015281,-0.00001337,
 0.00108411,0.00063640,-0.00051031,-0.00284266,-0.00257536,0.00246235,-
 0.00445961,0.00081840,-0.02684773,0.06127104,-0.00008908,0.00004935,-0
 .00005913,0.00005481,-0.00018866,-0.00003134,-0.00025176,0.00017863,-0
 .00005986,0.00128295,-0.00042594,-0.00022408,0.00205504,-0.00328083,0.
 01886701,0.00483618,-0.04630087,0.01808789,-0.00453622,-0.00189128,-0.
 03073709,-0.00075594,0.00186960,-0.00406878,-0.00037655,0.00044314,0.0
 0179844,-0.00012034,-0.00050721,-0.00012386,0.00002370,0.00004607,0.00
 001945,0.00008140,0.00000998,0.00000783,-0.00005239,-0.00000812,0.0000
 3645,-0.00009049,0.00001911,-0.00003315,-0.00004153,-0.00004624,-0.000
 02666,0.00049104,0.00054583,0.00023406,-0.00340650,-0.00137815,0.00191
 662,0.00202781,-0.00083053,0.01320399,-0.00108560,0.05663774,0.0000455
 1,-0.00001232,0.00007379,0.00004168,0.00010090,-0.00004942,0.00044303,
 -0.00025630,0.00035060,-0.00145289,0.00004042,0.00026326,-0.00135601,0
 .00184041,-0.01232394,-0.05051353,0.01649454,-0.30021846,-0.00117145,-
 0.00212179,-0.01146227,-0.00132706,0.00181308,-0.00178915,0.00028112,-
 0.00032733,0.00177821,0.00005039,-0.00000937,0.00009737,0.00003951,0.0
 0000143,-0.00006330,-0.00004573,0.00001385,-0.00001675,0.00006846,-0.0
 0001294,0.00009212,-0.00021458,-0.00001668,-0.00001781,0.00006818,0.00
 006775,0.00000625,0.00004805,0.00003977,0.00106360,0.00200835,0.001382
 69,0.00015341,-0.00040004,0.00017003,-0.00174394,0.05389102,-0.0169099
 6,0.32263774,0.00009968,-0.00000518,0.00008689,-0.00010695,0.00003541,
 -0.00004126,0.00009295,0.00001260,0.00013448,-0.00022046,-0.00017971,-
 0.00010170,0.00024712,0.00040813,-0.00074377,-0.00019539,-0.00088481,-
 0.00096682,-0.05626382,-0.00004829,-0.02297192,0.00300566,-0.00443844,
 -0.02683982,-0.00446810,0.00614122,-0.00226324,0.00036206,0.00055580,0
 .00131237,0.00039454,-0.00002598,-0.00007457,0.00004767,0.00011778,-0.
 00010987,0.00022010,-0.00017888,0.00023220,-0.00101930,0.00004387,-0.0
 0048359,0.00002249,0.00002260,0.00000739,0.00004831,0.00008731,0.00011
 838,0.00006685,-0.00005965,-0.00000292,0.00004804,-0.00028753,0.000380
 85,0.00092669,0.00000604,-0.00045167,0.05308818,0.00003558,-0.00001989
 ,0.00002874,-0.00004095,0.00005811,0.00000038,0.00008826,-0.00002876,-
 0.00007782,-0.00013562,-0.00022642,0.00014421,0.00007550,0.00216893,-0
 .00038908,-0.00455812,-0.00010073,-0.03271045,0.00095642,-0.04341706,0
 .00987331,-0.00260076,-0.00066007,0.01815589,0.00547439,-0.00315809,0.
 00153041,-0.00041363,-0.00006435,-0.00077695,-0.00011998,-0.00006145,0
 .00004812,-0.00008142,0.00001039,-0.00009201,0.00012680,-0.00001314,0.
 00005138,-0.00033213,0.00017177,-0.00010808,0.00002273,0.00001726,0.00
 001519,0.00049799,0.00023917,0.00013223,-0.00001219,-0.00030013,0.0006
 8800,0.00028165,0.00109134,0.00057464,-0.00024509,-0.00591163,-0.00215
 057,-0.00203028,0.05066096,-0.00003564,0.00005015,0.00006526,0.0001350
 1,-0.00011341,-0.00010519,-0.00004885,0.00010102,0.00006075,-0.0001129
 2,-0.00044826,-0.00015959,0.00027408,0.00100137,0.00100428,-0.00145644
 ,-0.00014723,-0.01141340,-0.02678658,0.00968977,-0.30338031,0.00374986
 ,-0.00065193,-0.00687155,-0.00341200,0.00121485,-0.00011104,0.00051241
 ,0.00006947,0.00035949,-0.00015358,0.00017217,0.00005104,0.00016878,0.
 00008340,-0.00011948,0.00026752,-0.00012911,0.00051387,0.00002142,0.00
 007262,-0.00087666,0.00001890,0.00001770,0.00004189,0.00019605,0.00001
 024,0.00024209,-0.00050274,-0.00052826,0.00044036,0.00025626,-0.000172
 81,0.00038398,0.00025095,-0.00235274,0.00043851,0.02814015,-0.00780245
 ,0.32822502,-0.00003210,-0.00003452,-0.00008794,-0.00000297,0.00007640
 ,0.00015998,0.00005711,-0.00005281,-0.00004143,0.00018561,0.00031900,0
 .00004442,0.00119785,0.00030605,-0.00042836,0.00004350,0.00064802,-0.0
 0046122,-0.21824125,-0.09937654,0.08513072,-0.02442127,-0.01255237,0.0
 1323320,0.00509557,0.00031469,0.00041875,-0.00220972,0.00302976,-0.002
 40820,-0.00048783,0.00031617,0.00087634,-0.00011716,0.00020065,-0.0001
 2690,0.00009990,-0.00007167,0.00004321,0.00067276,0.00028282,-0.000579
 27,0.00001209,-0.00000115,-0.00002991,0.00006514,-0.00000353,0.0002153
 6,-0.00006909,-0.00009669,0.00011673,0.00099607,0.00013452,-0.00030608
 ,-0.00005945,-0.00016823,-0.00004372,0.00443078,0.00298494,-0.00208363
 ,0.23334868,-0.00017210,0.00010581,-0.00003482,0.00031335,-0.00029280,
 -0.00010981,-0.00038909,0.00030776,-0.00002351,0.00105892,-0.00016163,
 -0.00017440,0.00043193,-0.00487629,-0.00392917,-0.02386556,-0.01551635
 ,0.01259303,-0.09945459,-0.09682250,0.05116015,0.01739680,0.00672273,-
 0.00642947,-0.00157276,0.00036202,-0.00175773,0.00190295,-0.00164492,0
 .00113579,0.00050951,-0.00022731,-0.00050684,0.00007247,-0.00015513,0.
 00009343,-0.00008405,0.00017831,0.00005403,-0.00017053,-0.00025513,0.0
 0004269,0.00001211,-0.00000059,0.00005504,-0.00124761,-0.00106871,0.00
 070939,0.00026681,0.00029872,-0.00006548,0.00015337,0.00102327,0.00077
 135,-0.00001521,0.00100258,-0.00019806,0.00075247,-0.00030308,-0.00025
 701,0.10383375,0.11124175,0.00000361,0.00002689,0.00002703,0.00003290,
 -0.00006861,-0.00004279,-0.00008876,0.00009138,0.00000397,0.00026748,-
 0.00021316,-0.00018191,-0.00014156,-0.00195883,-0.00042813,-0.01073932
 ,-0.00664812,0.00488513,0.08768000,0.05243533,-0.09368340,-0.00571336,
 -0.00529776,0.00280887,-0.00035236,0.00056470,-0.00000554,0.00012755,0
 .00092095,0.00058554,-0.00020520,0.00007386,0.00000960,0.00006270,0.00
 007822,-0.00010140,0.00017882,-0.00006578,0.00029746,-0.00033705,0.000
 03582,-0.00063904,0.00001476,0.00000462,0.00001688,-0.00019524,-0.0004
 5840,0.00036908,-0.00004048,-0.00027333,0.00021996,0.00004329,0.000552
 05,0.00053991,-0.00037716,0.00034515,0.00050461,0.02388680,0.01295740,
 -0.00968614,-0.09386456,-0.05303408,0.09400219,-0.00001833,-0.00022869
 ,-0.00025359,-0.00034726,0.00071818,0.00045857,0.00033437,0.00013271,-
 0.00007786,0.00032392,-0.00043961,0.00039816,0.00003156,-0.00016091,-0
 .00006195,0.00073654,-0.00084358,0.00015811,-0.00139457,-0.00169800,-0
 .00143018,0.00952279,0.01548069,0.01708693,-0.00285232,-0.00308757,0.0
 0098423,-0.06078351,-0.03787661,-0.04527878,-0.00889453,-0.01319111,-0
 .01904042,-0.00223348,0.00119250,-0.00244488,0.00121170,0.00027406,0.0
 0107641,-0.00062757,-0.00254725,-0.00511279,-0.00002241,-0.00009204,0.
 00005434,0.00006570,-0.00000534,-0.00002715,0.00002665,-0.00001568,-0.
 00002458,0.00000808,-0.00012219,-0.00007322,-0.00001333,0.00007432,-0.
 00001367,-0.00069700,0.00043094,-0.00010911,-0.00023958,0.00004505,-0.
 00033001,0.06763280,-0.00066455,0.00040977,-0.00014656,0.00118912,-0.0
 0134886,-0.00004486,-0.00055841,-0.00004467,-0.00023325,-0.00218277,-0
 .00320635,0.00353658,-0.00022306,0.00008179,-0.00027258,0.00003676,-0.
 00017906,0.00016139,0.00010340,0.00017188,-0.00078497,0.00047659,0.001
 40203,0.00021867,-0.00049534,-0.00160356,0.00043877,-0.04331009,-0.134
 40621,-0.12234857,0.00577772,0.00636561,0.00880136,0.00004958,-0.00086
 856,0.00065515,0.00108195,0.00247738,0.00049424,-0.00583484,-0.0235851
 5,-0.02023811,0.00014139,0.00042059,-0.00043469,0.00014306,-0.00001330
 ,-0.00005677,0.00006009,-0.00002608,0.00004421,0.00004103,0.00007334,-
 0.00004696,0.00003170,0.00008040,0.00004513,0.00019388,-0.00016703,0.0
 0030365,0.00008160,0.00002390,0.00014800,0.04234446,0.15150652,0.00026
 791,-0.00022211,0.00009843,-0.00036238,0.00075024,-0.00007145,0.000510
 50,-0.00002329,0.00065207,0.00107521,0.00140359,-0.00108664,-0.0000348
 1,-0.00013494,0.00003782,-0.00076868,0.00004804,0.00006527,0.00129625,
 0.00219474,0.00071059,-0.00658852,-0.01383273,-0.01920168,0.00362016,0
 .00239663,0.00036714,-0.05217513,-0.12787842,-0.19290880,-0.00302338,-
 0.00519466,-0.00655115,-0.00005713,0.00093415,-0.00066873,-0.00101353,
 -0.00087162,0.00015393,0.00344689,0.01232069,0.00976170,-0.00004215,-0
 .00018605,0.00020719,0.00000995,0.00000237,0.00002127,-0.00000121,-0.0
 0001930,-0.00003325,0.00001212,0.00012686,0.00011375,-0.00002056,0.000
 09475,0.00004447,0.00031306,-0.00029689,0.00035109,0.00020908,-0.00008
 600,0.00004532,0.05441317,0.12843918,0.20596312,-0.00051484,0.00069496
 ,-0.00053810,0.00220591,-0.00054121,0.00091787,-0.00063868,0.00010556,
 -0.00007159,0.00030052,0.00003325,0.00010535,0.00000326,-0.00002448,-0
 .00008110,0.00026254,0.00015462,0.00014670,0.00031086,-0.00060099,0.00
 007356,-0.00000511,0.00129890,-0.00308835,0.00010390,-0.00059538,0.002
 18133,0.00226391,0.00339181,-0.02645004,-0.04576163,-0.00252634,0.0202
 7836,0.00000421,0.00035179,0.01714859,-0.00101917,-0.00343156,0.001691
 41,-0.00304784,0.00054963,-0.00149953,0.00002637,-0.00006632,0.0000718
 4,-0.00003733,-0.00001211,0.00001712,-0.00001560,0.00000011,-0.0000012
 0,-0.00003715,-0.00013996,-0.00000502,-0.00002962,0.00007241,0.0000129
 1,0.00019877,-0.00015564,0.00018360,-0.00001031,-0.00001162,0.00000354
 ,-0.00302802,0.00124999,-0.00123995,0.04939394,-0.00014566,0.00024612,
 -0.00061668,0.00048688,-0.00025111,0.00187509,-0.00038050,-0.00024933,
 -0.00017457,0.00034101,0.00037175,0.00024763,-0.00007874,-0.00012952,-
 0.00006695,-0.00006144,0.00009231,-0.00000967,0.00007606,0.00010404,0.
 00033428,0.00002847,0.00080430,0.00125896,-0.00054430,-0.00094327,-0.0
 0066500,-0.00052813,-0.00149512,0.00572844,-0.00242317,-0.05258166,0.0
 3296707,0.00187218,-0.00059762,0.01992785,0.00017848,-0.00610313,0.004
 41231,-0.00151967,-0.00080534,0.00149595,-0.00001200,0.00000521,-0.000
 01119,0.00001824,-0.00001222,-0.00001699,-0.00006270,0.00004808,-0.000
 01796,-0.00003114,0.00000301,0.00000041,0.00001854,-0.00000566,-0.0000
 1311,0.00004010,-0.00004373,-0.00002606,-0.00003099,0.00001657,-0.0000
 2903,-0.00014448,-0.00007296,0.00017156,0.00203347,0.05718283,0.000565
 71,-0.00026988,0.00070919,-0.00101681,-0.00035963,-0.00068757,0.000287
 31,-0.00002205,0.00031687,-0.00016513,-0.00019185,-0.00027921,0.000025
 49,0.00002287,0.00003104,-0.00006226,-0.00006297,-0.00001653,0.0000042
 3,0.00016722,-0.00009234,0.00205481,0.00130727,-0.00250132,0.00266361,
 -0.00161493,0.00103028,-0.00295039,0.00071818,-0.00736653,0.01811268,0
 .03645825,-0.31660925,-0.00022221,0.00064177,-0.00079337,-0.00012018,0
 .00007325,0.00078060,0.00031501,-0.00022036,-0.00075762,0.00000866,0.0
 0002803,-0.00000530,0.00000192,0.00000374,0.00001083,0.00002905,-0.000
 03091,0.00000571,0.00002801,0.00003888,0.00000851,0.00000436,0.0000089
 0,0.00001349,-0.00004001,0.00001558,0.00005421,0.00000843,-0.00003685,
 0.00006185,-0.00075560,0.00090445,-0.00046053,-0.01943239,-0.04037820,
 0.33742549,-0.00031157,-0.00008667,-0.00150111,-0.00212029,-0.00119622
 ,0.00400558,0.00102441,-0.00006115,-0.00038349,-0.00023517,-0.00063890
 ,-0.00071430,0.00004322,-0.00007823,0.00005714,-0.00003199,-0.00027319
 ,-0.00000958,-0.00083046,-0.00043025,0.00069774,-0.00197745,0.00222704
 ,-0.00269943,0.00024952,-0.00026458,0.00033696,-0.01083168,0.02279852,
 0.01049176,-0.07195444,0.07887513,0.04119034,0.00355962,-0.02271327,-0
 .01100659,0.00131019,0.00105357,0.00077327,-0.00366106,0.00004351,-0.0
 0024948,0.00019212,-0.00005883,-0.00007177,0.00002152,0.00000942,0.000
 01402,0.00006324,-0.00005010,0.00004660,0.00004685,0.00007074,-0.00001
 392,-0.00000739,0.00000075,0.00001116,0.00007070,-0.00001539,-0.000015
 25,-0.00030708,0.00020456,-0.00000191,0.00105646,-0.00022495,0.0004256
 3,-0.00051733,0.00154950,0.00053293,0.08398142,-0.00026248,-0.00027131
 ,-0.00151828,-0.00272490,-0.00018638,0.00398689,0.00058237,0.00030838,
 -0.00030799,-0.00014679,0.00018999,0.00005170,0.00002406,-0.00006001,0
 .00014869,-0.00005681,-0.00005900,0.00002989,0.00002520,0.00005732,-0.
 00016470,-0.00011238,-0.00034470,0.00079474,-0.00004747,-0.00000690,-0
 .00022977,0.00046968,-0.00234703,-0.00210696,0.07981622,-0.23941130,-0
 .09982160,0.00502709,-0.02136452,-0.01189242,0.00054299,0.00161147,0.0
 0135330,0.00041448,-0.00060481,0.00028050,0.00009409,-0.00004112,-0.00
 005033,0.00001095,-0.00000938,-0.00000203,0.00005557,-0.00003289,-0.00
 001477,0.00001909,0.00000802,-0.00000168,-0.00000114,0.00000997,-0.000
 00708,-0.00002142,-0.00000497,-0.00000817,-0.00000065,-0.00001426,-0.0
 0000856,-0.00032142,0.00108229,0.00024762,-0.00194284,0.00532996,0.002
 15754,-0.08153251,0.25488018,0.00032664,-0.00021385,0.00063921,-0.0001
 2765,0.00106562,-0.00084636,0.00018297,-0.00036941,0.00046992,-0.00016
 800,-0.00028212,-0.00068939,-0.00001906,0.00000890,-0.00006228,0.00006
 931,-0.00007590,0.00001262,-0.00031909,-0.00032987,0.00011396,-0.00053
 661,0.00110575,-0.00156124,0.00072976,0.00014262,0.00089361,-0.0066057
 4,0.01211396,0.00441668,0.04200411,-0.10251912,-0.09876424,-0.00282220
 ,0.00819984,0.00366721,0.00083311,-0.00086459,0.00004163,-0.00196016,0
 .00115270,-0.00049279,0.00002211,0.00005583,-0.00003407,0.00001345,-0.
 00000252,0.00000380,0.00000076,-0.00001269,0.00003100,0.00002482,-0.00
 001083,-0.00000764,-0.00002189,0.00000830,0.00002548,0.00001363,0.0000
 0169,0.00000757,-0.00008860,0.00003572,0.00001530,-0.00020529,0.000596
 51,0.00116640,0.00986141,-0.02666973,-0.01073871,-0.04096942,0.1068083
 3,0.10133994,0.00188088,-0.00064851,0.00059476,-0.00057137,-0.00052351
 ,-0.00153639,0.00051828,-0.00035804,-0.00017174,-0.00006992,-0.0001708
 7,-0.00011205,-0.00003500,-0.00002629,0.00017050,-0.00003186,0.0000038
 8,-0.00003441,-0.00007682,0.00003770,0.00007249,0.00002524,-0.00015304
 ,-0.00041363,-0.00014144,0.00001375,0.00017603,-0.00068238,-0.00072258
 ,0.00053565,-0.00954130,0.00350014,0.00334920,-0.29110712,0.07187366,0
 .05905331,-0.01181037,0.00343423,-0.00285258,0.00128300,0.00112713,-0.
 00187845,0.00008200,-0.00007541,0.00004481,-0.00001525,0.00002848,0.00
 003160,0.00003652,-0.00002781,0.00000784,-0.00001749,0.00001750,0.0000
 1141,0.00000505,-0.00000477,0.00000480,0.00002139,-0.00000146,0.000029
 84,-0.00002714,0.00002058,0.00001836,-0.00019386,0.00001552,-0.0000669
 7,-0.00084254,-0.00069017,0.00001771,0.00092796,0.00014586,-0.00035765
 ,0.31086475,-0.00238377,0.00164516,0.00314091,0.02399288,-0.00721182,-
 0.00716715,-0.00103444,-0.00243501,-0.00291295,-0.00030439,0.00048158,
 -0.00021532,0.00001322,0.00003104,-0.00000106,-0.00010810,-0.00009974,
 0.00001025,-0.00017814,0.00009162,0.00027318,-0.00031656,0.00011325,-0
 .00072650,-0.00018266,0.00003719,0.00003629,-0.00295038,-0.00244016,0.
 00147387,-0.02212809,0.00699457,0.00382025,0.06912229,-0.06557987,-0.0
 1764498,0.01399559,-0.00381900,0.00083654,-0.00099840,-0.00152870,0.00
 227031,0.00062351,-0.00085374,0.00026933,-0.00000550,0.00001127,-0.000
 02597,0.00001844,0.00001316,0.00002553,0.00002905,0.00006571,0.0000053
 3,0.00000261,-0.00000041,0.00000244,0.00000206,-0.00001597,0.00000363,
 -0.00007813,0.00006393,-0.00000549,-0.00045042,0.00008285,-0.00018058,
 -0.00053942,-0.00057899,0.00039102,0.00028725,0.00153009,-0.00021497,-
 0.07699218,0.07324674,-0.00193949,0.00192720,0.00207348,0.02331504,-0.
 00668205,-0.00249870,-0.00103775,-0.00306896,-0.00272547,-0.00088149,-
 0.00000767,-0.00039689,0.00011357,0.00028482,0.00008327,0.00007845,-0.
 00008329,0.00000508,-0.00000912,-0.00002615,-0.00013643,0.00015101,-0.
 00020255,0.00010548,-0.00000236,0.00001639,0.00010399,0.00005845,0.001
 40942,-0.00087379,0.00629371,-0.00317604,0.00109594,0.06826145,-0.0197
 0417,-0.06454418,-0.03433441,0.00988909,0.00352694,-0.00189274,0.00293
 838,-0.00487323,0.00079737,-0.00078267,0.00028541,-0.00007558,0.000065
 90,0.00006116,0.00008126,-0.00004591,0.00005793,0.00002363,0.00000012,
 -0.00001809,-0.00001547,-0.00000285,0.00001428,0.00001403,0.00001198,0
 .00005566,0.00002504,-0.00000657,0.00003826,0.00021164,0.00005297,0.00
 004117,-0.00010599,0.00020700,-0.00009835,-0.00078894,0.00013959,0.000
 48651,-0.05688083,0.01677657,0.06775346,0.00002043,-0.00065214,-0.0005
 2424,-0.00056079,0.00129594,0.00068318,0.00095295,0.00114723,0.0007218
 9,0.00326631,-0.00118395,0.00137492,0.00029154,0.00012272,0.00124377,0
 .00009570,0.00006671,0.00009806,-0.00046990,-0.00023047,0.00002779,0.0
 0031925,-0.00013052,-0.00017423,-0.00012725,0.00012813,0.00001102,0.00
 657511,-0.00194789,0.00667923,-0.00108173,-0.00172929,0.00103375,-0.00
 515595,-0.00182640,0.00297483,-0.02799359,0.01123844,-0.02693694,-0.11
 131880,0.02476002,-0.10783035,0.00036318,0.00005599,0.00000203,-0.0000
 8655,-0.00010624,0.00009153,0.00032862,0.00011907,0.00020612,0.0000014
 6,0.00001826,0.00000600,-0.00007419,-0.00002705,-0.00002382,-0.0004209
 5,-0.00023254,0.00051190,0.00001987,0.00000849,0.00006715,0.00039520,0
 .00047618,-0.00020551,0.00043101,0.00001017,0.00010504,0.00023870,-0.0
 0005683,0.00011929,-0.00048121,0.00056370,-0.00146047,0.13447159,-0.00
 030474,0.00028656,0.00020518,0.00121001,-0.00020899,-0.00029817,0.0014
 6060,-0.00293248,-0.00200015,-0.01119089,0.00375700,-0.02208486,-0.001
 15675,0.00103417,-0.00054155,-0.00004170,-0.00002400,0.00005560,0.0000
 5608,0.00025549,0.00049575,0.00143631,-0.00159396,-0.00023287,-0.00076
 699,0.00030870,0.00080975,0.01220363,-0.00503448,0.02005371,-0.0001433
 3,-0.00268552,0.00197256,0.00025174,-0.00054575,0.00085736,0.00101458,
 0.00016278,0.00078447,0.02720822,-0.05631656,0.04340092,-0.00125677,-0
 .00073761,-0.00000407,-0.00011901,0.00003747,0.00025207,0.00045915,-0.
 00028502,0.00039281,0.00005267,0.00004019,-0.00000967,-0.00002870,-0.0
 0011687,0.00002306,-0.00025909,0.00007857,-0.00015258,-0.00006110,-0.0
 0000865,-0.00017324,0.00053201,0.00134342,-0.00020381,0.00065137,-0.00
 033453,0.00025067,0.00050425,-0.00024910,0.00026985,0.00017621,0.00015
 525,0.00006943,-0.03188774,0.06361393,-0.00043919,0.00026529,-0.000126
 57,0.00138219,-0.00034614,0.00005476,0.00176467,-0.00247452,-0.0018787
 8,-0.01124117,0.00339673,-0.01780361,-0.00123465,0.00113763,0.00015209
 ,0.00033387,-0.00013933,0.00013460,-0.00037759,-0.00041582,-0.00073240
 ,-0.00114171,0.00121681,0.00014651,0.00049950,-0.00037285,-0.00015401,
 -0.00416996,0.00074686,-0.00544364,0.00073731,0.00071788,0.00003405,0.
 00254109,-0.00054766,0.00067674,0.00591646,-0.00215956,0.01259599,-0.1
 1635616,0.04466017,-0.24403064,-0.00108608,-0.00066112,0.00006394,0.00
 003945,-0.00008545,0.00051159,0.00096291,-0.00067658,0.00061604,0.0000
 5953,0.00002417,-0.00003533,-0.00015372,0.00000066,0.00012785,0.000450
 94,0.00017514,0.00042831,0.00006857,-0.00000082,0.00033739,0.00039752,
 -0.00023295,0.00118149,-0.00018034,0.00006861,-0.00004143,-0.00015792,
 0.00013556,-0.00013413,0.00018640,-0.00024048,0.00037711,0.12119808,-0
 .04419223,0.25294210\\0.00000934,0.00000031,0.00000497,-0.00001866,0.0
 0000158,-0.00000112,0.00000998,-0.00000668,0.00000002,0.00000043,0.000
 00791,0.00000487,0.00000100,0.00001013,-0.00000154,-0.00000600,-0.0000
 0088,0.00000374,-0.00000566,-0.00000901,-0.00000972,0.00000468,-0.0000
 0006,0.00000906,0.00000523,0.00000248,-0.00000910,-0.00000760,-0.00000
 378,-0.00000353,0.00001093,0.00000916,-0.00001147,0.00002281,-0.000020
 42,0.00002966,-0.00002184,0.00000387,-0.00000827,-0.00000208,0.0000052
 0,-0.00001043,-0.00000255,-0.00000098,0.00000669,0.00000081,-0.0000018
 6,0.00000687,0.00000279,-0.00000080,0.00000129,-0.00000200,0.00000113,
 -0.00000115,0.00000198,-0.00000337,-0.00000106,0.,0.00000311,-0.000002
 35,-0.00000259,0.,-0.00000262,0.00000145,0.00000262,-0.00000532,-0.000
 00003,0.00000066,0.00000203,0.00000008,-0.00000310,-0.00000124,0.00000
 079,0.00000056,0.00000046,-0.00000330,0.00000222,-0.00000074\\\@


 OPTIMIST - A PESSIMIST WHO LACKS EXPERIENCE
 Job cpu time:       0 days  0 hours 25 minutes 18.5 seconds.
 Elapsed time:       0 days  0 hours  1 minutes 35.2 seconds.
 File lengths (MBytes):  RWF=    198 Int=      0 D2E=      0 Chk=      7 Scr=      1
 Normal termination of Gaussian 16 at Wed Jan 14 09:38:43 2026.
