26
 energy: -41.773581202477 gnorm: 0.195323337928 xtb: 6.7.1 (edcfbbe)
O            2.93259500000000       -0.67839100000000       -1.43445400000000
C            2.04892100000000       -0.58405800000000       -0.59853400000000
C            0.86797500000000       -1.46479800000000       -0.55394000000000
C           -0.12595100000000       -1.21891600000000        0.32902400000000
C           -1.46056200000000       -1.90172100000000        0.31302600000000
C           -2.53781400000000       -1.05870800000000       -0.40356200000000
C           -2.64122700000000        0.40188500000000        0.08235800000000
C           -1.42460000000000        1.20392100000000       -0.35168000000000
O           -1.37928100000000        1.72990100000000       -1.44504500000000
C           -0.33024951810000        1.55733056040000        0.48773290080000
C            0.89438818460000        1.92473949940000       -0.08410456620000
C            2.23321481540000        0.29395550060000        0.53886156620000
O            1.44674400000000        0.04142100000000        1.64796800000000
C            0.14462751810000       -0.35963956040000        1.45712309920000
H            0.80281900000000       -2.26384900000000       -1.29761700000000
H           -1.37879100000000       -2.87596700000000       -0.19130200000000
H           -1.78370600000000       -2.08830900000000        1.35105800000000
H           -3.51379800000000       -1.54840100000000       -0.26533300000000
H           -2.33242800000000       -1.05133500000000       -1.48609200000000
H           -2.76244100000000        0.43291200000000        1.17707300000000
H           -3.52334200000000        0.86963500000000       -0.37803700000000
H           -0.56572100000000        1.99288800000000        1.41338900000000
H            1.02056100000000        1.79093500000000       -1.08276700000000
H            1.44974300000000        2.63577100000000        0.42129900000000
H            3.06467900000000        0.85621500000000        0.65144200000000
H           -0.49037900000000       -0.25789000000000        2.24129800000000
26
 energy: -41.799747329003 gnorm: 0.060406044853 xtb: 6.7.1 (edcfbbe)
O            2.92478952740147       -0.66847201766308       -1.46192066492137
C            2.06893811096006       -0.63235520981562       -0.57537981109196
C            0.86316311130979       -1.45661000877896       -0.56686150197215
C           -0.11351960562223       -1.23064206253674        0.34709620668647
C           -1.45986645956120       -1.89542188403882        0.32070229977216
C           -2.52847790041868       -1.05578961912534       -0.40513939762008
C           -2.63087586162164        0.39810652277077        0.08660747579492
C           -1.45479410879753        1.23291658215388       -0.38482169965111
O           -1.43281888565507        1.69861749901498       -1.51644119285534
C           -0.33713771085421        1.57435791445753        0.48539551804683
C            0.88678116721464        1.93488650024933       -0.08206121339519
C            2.18433722022852        0.28235401489451        0.55264650677169
O            1.44383594978980        0.03769602809292        1.66301680709316
C            0.16770787273244       -0.33990991603665        1.43706021850543
H            0.78522975447377       -2.23003843302135       -1.32048196581097
H           -1.38214272442777       -2.86008596835798       -0.19003908911101
H           -1.78810637259549       -2.08416590564477        1.34812316013434
H           -3.49919249749940       -1.54239612857323       -0.26327722638899
H           -2.32329973984581       -1.04513244438557       -1.48078834013586
H           -2.74392828276826        0.43212560743301        1.17435959199593
H           -3.51698593255769        0.84871577367656       -0.37154065463452
H           -0.57353524901465        1.98726535686809        1.44799162834158
H            1.02064823155631        1.80098290819533       -1.12514554941325
H            1.48110708804317        2.64807081421495        0.43910704299954
H            3.08236481688473        0.83010185919471        0.69592203358499
H           -0.46824451935508       -0.28565078323838        2.28505481727470
26
 energy: -41.805845629304 gnorm: 0.025069960737 xtb: 6.7.1 (edcfbbe)
O            2.90543824354551       -0.65014454569411       -1.47002470405874
C            2.04487316098380       -0.60457030354053       -0.59031187655526
C            0.85139904161012       -1.42746055951130       -0.57453765116635
C           -0.11523121203473       -1.22253444749603        0.36040716575845
C           -1.45921810800907       -1.88859994095158        0.32846696862237
C           -2.51817680634818       -1.04929080624987       -0.40445901099118
C           -2.62264185456789        0.39986382437849        0.09086767112001
C           -1.46272007894329        1.22570888750997       -0.42685891897810
O           -1.46327122942454        1.64147275215920       -1.57750286551183
C           -0.34168246051127        1.57699553058573        0.46837460006867
C            0.88400047277543        1.93857995491967       -0.08777069237169
C            2.15700001150850        0.27681076750127        0.56873568645379
O            1.42559025156815        0.05573067235608        1.66720429572104
C            0.17266760915388       -0.32657075889099        1.43446079168722
H            0.76455299393828       -2.18515509682776       -1.33716230606823
H           -1.37554103570615       -2.84748669356185       -0.18509975342363
H           -1.79276514745093       -2.07325101975814        1.35025289770894
H           -3.48504472519131       -1.53489889477294       -0.26190394579384
H           -2.30546584164810       -1.03555946094355       -1.47470765203456
H           -2.70451949853828        0.43513600147377        1.17677888609442
H           -3.52305733960786        0.83358839807875       -0.35241921418981
H           -0.59351046635890        1.96475202359800        1.45077123936084
H            1.02006268025056        1.82747563912599       -1.15190933525842
H            1.50956023843767        2.64038525470389        0.44120130113032
H            3.12374251131143        0.74978938495097        0.76163079152229
H           -0.44006441074279       -0.34123956314307        2.33470063115330
26
 energy: -41.807395547914 gnorm: 0.021089976108 xtb: 6.7.1 (edcfbbe)
O            2.88686443564729       -0.61706361244428       -1.48108888358760
C            2.04068613764576       -0.59763699556429       -0.58473157448603
C            0.83026209259260       -1.39610822380745       -0.59019637807022
C           -0.12333500547534       -1.20889439877456        0.36475470764033
C           -1.46023930752469       -1.88481090402767        0.33821908234858
C           -2.51561413657354       -1.04973374171159       -0.40186679587488
C           -2.61360573112036        0.39948537383899        0.09306895604803
C           -1.45410320872355        1.20544329444531       -0.45398073296609
O           -1.45084508608736        1.57800846731575       -1.61689350479700
C           -0.34113389723191        1.56768298178748        0.45554563458079
C            0.88884954143818        1.93125307531700       -0.08426050933063
C            2.15498910941069        0.26908904717025        0.58712541255179
O            1.42013709899853        0.06138859890017        1.67794710773293
C            0.17293374971734       -0.32577288996307        1.44492228388023
H            0.72028617199310       -2.12804077724377       -1.37800132442844
H           -1.36980822690923       -2.84326888023779       -0.17375842621329
H           -1.79747830219104       -2.06494757787763        1.35948100791616
H           -3.48260951380010       -1.53527162089336       -0.26508351981233
H           -2.29260932318550       -1.03330378208467       -1.46986105110631
H           -2.66535331343291        0.43891533602165        1.18060836113998
H           -3.52481526706534        0.82932288314516       -0.33124067864067
H           -0.61577770387737        1.95029167407215        1.43339023053723
H            1.03147466701732        1.83414159403245       -1.15113447448702
H            1.51951539787005        2.63072783151120        0.44240215915739
H            3.12815490099858        0.72266891548478        0.79231868610974
H           -0.43084828013115       -0.35403866841231        2.35149922415757
26
 energy: -41.808559612110 gnorm: 0.014750507559 xtb: 6.7.1 (edcfbbe)
O            2.85867760035522       -0.57131876708307       -1.49571306102860
C            2.01971529874819       -0.56739664214059       -0.59514578222865
C            0.80601258187322       -1.35922014986418       -0.60471136093998
C           -0.13223831549407       -1.19842359353970        0.37056221184254
C           -1.46374890288175       -1.88188175655183        0.34838748685459
C           -2.51744558005484       -1.05363196277752       -0.40049842880469
C           -2.59964526761594        0.39696180783292        0.09564953698398
C           -1.43602693518993        1.17589952325197       -0.48196283037375
O           -1.41496814912708        1.48535414959132       -1.66165917227268
C           -0.33911222543442        1.55821710222658        0.44419217865331
C            0.89561050629456        1.92570231580331       -0.07430541497635
C            2.15647074434554        0.26168890998427        0.60346858381780
O            1.41593558272702        0.06080717359738        1.68774408254512
C            0.16940735216795       -0.32580098191534        1.45731717005218
H            0.67362535549215       -2.06291589993105       -1.41604627658631
H           -1.36603899092422       -2.84410192540928       -0.15445189727942
H           -1.80494656000120       -2.05301719226387        1.37030183009176
H           -3.48691318109494       -1.53657785036464       -0.27353771356422
H           -2.28171040511202       -1.03510918869590       -1.46619390618080
H           -2.61671902906899        0.44009807305417        1.18447250434282
H           -3.52004266108733        0.83157863841011       -0.30147892758289
H           -0.64743523356205        1.93773129278818        1.41094402220410
H            1.05417647598214        1.83415487750833       -1.13899322454395
H            1.53016181607940        2.62144436271863        0.44940071605022
H            3.13047641069562        0.69365414088349        0.82032923624403
H           -0.42730128811215       -0.35436945711400        2.36111343668042
26
 energy: -41.809094801456 gnorm: 0.009426936656 xtb: 6.7.1 (edcfbbe)
O            2.83647499990708       -0.53690100260785       -1.50867312781733
C            2.00313525490230       -0.54834832033873       -0.60405392150238
C            0.78611086488607       -1.33519900166873       -0.61579534271067
C           -0.14160605985801       -1.19316389168465        0.37035535318384
C           -1.46962885830300       -1.88420793587940        0.35628655343438
C           -2.52122902027046       -1.06009854021911       -0.40009823185176
C           -2.58568182710516        0.39315440831741        0.09352556946631
C           -1.41136850423193        1.14786099591772       -0.49571470303344
O           -1.36849728048348        1.41043957944836       -1.68380867024330
C           -0.33310741238273        1.55658727841820        0.44119219572136
C            0.90107770186306        1.93521416489267       -0.06469882625222
C            2.15326089554072        0.26150660421577        0.60642078379621
O            1.41119583147220        0.05724569266283        1.68908693534225
C            0.16204084122826       -0.32636302732424        1.46208897735947
H            0.64399342061377       -2.02491739599572       -1.43391016871605
H           -1.36845901320868       -2.85289485265657       -0.13386783726516
H           -1.81083360187120       -2.04390528902471        1.38059685169493
H           -3.49366426755667       -1.53728044696595       -0.27544253139708
H           -2.28126631460664       -1.04606509045264       -1.46501469831691
H           -2.58757014718081        0.43749788239673        1.18112684372878
H           -3.50498644114450        0.84109829913337       -0.28796873870047
H           -0.66762079728080        1.93366079382971        1.39858463287077
H            1.07310471870864        1.84343685886399       -1.12576394069454
H            1.53435809305143        2.62801779624538        0.46089614566146
H            3.12593380407034        0.67986979593557        0.82821961706437
H           -0.42918988075968       -0.35671835545990        2.36561527917804
26
 energy: -41.809460420567 gnorm: 0.012803795494 xtb: 6.7.1 (edcfbbe)
O            2.81572423759057       -0.50943564880021       -1.52557986069924
C            1.98817397825362       -0.53168882236304       -0.61681853626889
C            0.77174770396253       -1.31940171780350       -0.62410495686972
C           -0.14694429148306       -1.18978793103551        0.36924228537733
C           -1.47486880452776       -1.88465810681488        0.36408280532543
C           -2.52722368823113       -1.06739651019658       -0.39896767832883
C           -2.57687360303348        0.38950585191212        0.08579570204834
C           -1.39002513341542        1.12513275093797       -0.50251895306565
O           -1.31130171813132        1.33207717443945       -1.70199001263930
C           -0.33513213415642        1.56403768103141        0.44535052743179
C            0.90266166028351        1.94412440118808       -0.04681204696698
C            2.15449942389541        0.26210012065437        0.60206307374551
O            1.41419566611864        0.05145796663814        1.68606474999976
C            0.16006836086164       -0.32149497130983        1.46089007931221
H            0.62161739463871       -1.99945887985437       -1.44680618807403
H           -1.37348429394362       -2.86073580426437       -0.11197710840079
H           -1.81422382251056       -2.03203478907792        1.39111737251538
H           -3.50212289639804       -1.53809159669815       -0.26981736005296
H           -2.28838584984109       -1.06362599536616       -1.46409602930190
H           -2.57768177707686        0.43641656104934        1.17160786244486
H           -3.48798963768731        0.85154558732602       -0.29464022110062
H           -0.68987001938203        1.94119015940061        1.39385811906130
H            1.08604328901295        1.85360424193164       -1.10514547543288
H            1.53261005337376        2.63399614826653        0.48536859705165
H            3.13142958080682        0.66445385025822        0.82677476349118
H           -0.42666667897993       -0.35230472144999        2.36624348939809
26
 energy: -41.809810302148 gnorm: 0.009977040365 xtb: 6.7.1 (edcfbbe)
O            2.78844073109000       -0.47965866288441       -1.54506239621607
C            1.96906575810195       -0.51557562881436       -0.62932715723164
C            0.75646229076444       -1.30927564821180       -0.62962397625803
C           -0.15365638737415       -1.19027172565214        0.36988177204943
C           -1.48302117038441       -1.88655147353110        0.37327625365115
C           -2.53617633723081       -1.07779861382967       -0.39834498894439
C           -2.56406292084208        0.38398622814638        0.07125141460077
C           -1.35552423215777        1.09233556142989       -0.50946792542242
O           -1.24024201309981        1.25580232841437       -1.70691231464923
C           -0.32937900592714        1.56776451677751        0.44845341727255
C            0.90706090866391        1.96602291471269       -0.03278853974626
C            2.14867992869402        0.26711068690521        0.59402988857637
O            1.41554995025380        0.04481304280772        1.68368709729539
C            0.15724836901463       -0.32079613084886        1.46240684999736
H            0.60171394757560       -1.98285076798768       -1.45540493008543
H           -1.38234550509629       -2.87055994263031       -0.08704008839996
H           -1.81914455273914       -2.01954472145522        1.40351163131460
H           -3.51419607369907       -1.53813716515393       -0.25499444104712
H           -2.30432829216120       -1.09118760005738       -1.46491153874766
H           -2.57145944159439        0.43516871391966        1.15635727881810
H           -3.46130124533808        0.86666528418813       -0.31632451659971
H           -0.70070735202032        1.93505924726782        1.39379714159001
H            1.09769371161333        1.88781143864039       -1.09040097239276
H            1.52683973254655        2.65171759189961        0.51698435249459
H            3.12982303632847        0.65691611676329        0.81652343829914
H           -0.42705683498191       -0.34943859081656        2.36962824978246
26
 energy: -41.810019515789 gnorm: 0.018082825289 xtb: 6.7.1 (edcfbbe)
O            2.76460562323504       -0.46085059096196       -1.56833158723462
C            1.95590645707852       -0.50665317726291       -0.64303704249839
C            0.74454293433946       -1.30330672781118       -0.63809082045985
C           -0.15793984726324       -1.18939815483070        0.36914499724648
C           -1.48804506117394       -1.88638451588850        0.38198790375046
C           -2.54317734516244       -1.08382610552529       -0.39299847389387
C           -2.55808849773775        0.38292865776778        0.05748965632697
C           -1.32824858352471        1.06654308016497       -0.51196426065347
O           -1.16380606501396        1.16664738526800       -1.71936601959955
C           -0.33125627951472        1.57492875212956        0.45902338297898
C            0.90802420723758        1.98235498129348       -0.00954170952781
C            2.14665534249729        0.26892774616608        0.58303253299923
O            1.41855368081727        0.04523852333057        1.67702753686885
C            0.15957480262658       -0.31918946693064        1.46058074014624
H            0.58736066778781       -1.97627219711291       -1.46390015946394
H           -1.38805325515681       -2.87421203296952       -0.06953986427552
H           -1.82058361194649       -2.00986140758753        1.41418916122428
H           -3.52242205757509       -1.53677597330980       -0.23432232863971
H           -2.31971484171384       -1.11405657898619       -1.46117505946004
H           -2.58382729812733        0.44744204889481        1.14232926575980
H           -3.43936404397167        0.87719943261858       -0.35303703499227
H           -0.71477293943351        1.93939755663882        1.40029019589045
H            1.10561288462009        1.91505909920837       -1.06725212112386
H            1.51527154654413        2.66823366470611        0.55590201679458
H            3.13209772802175        0.65235604355562        0.79924650553347
H           -0.42292914748994       -0.34694304256649        2.37149758630452
26
 energy: -41.810231738227 gnorm: 0.006226731637 xtb: 6.7.1 (edcfbbe)
O            2.75952562929734       -0.46854065862355       -1.57765385706719
C            1.95634174544395       -0.51058588016109       -0.64797181233345
C            0.74691194117946       -1.31157377505858       -0.63750975179731
C           -0.15563219252715       -1.18984054506793        0.37023814668267
C           -1.48704634713521       -1.88386481019457        0.38604393913578
C           -2.54440372948555       -1.08425206738461       -0.38948490517955
C           -2.56190358373369        0.38542754400710        0.04491164965554
C           -1.32472996259363        1.06545454204667       -0.50930004852391
O           -1.14611903842507        1.16106109460318       -1.70810964387682
C           -0.33804154853616        1.57628163463288        0.46508315965735
C            0.90430541975074        1.98404058318100        0.00151556729121
C            2.14920789986935        0.27011868121938        0.57416488910040
O            1.42562214116986        0.04776404836675        1.67128747688889
C            0.16793017900777       -0.31868231790112        1.45824581561520
H            0.59259356392986       -1.99266329048495       -1.45875458699750
H           -1.38831139242922       -2.87077922187996       -0.06615686720165
H           -1.81892068152650       -2.00631634900263        1.41803246175616
H           -3.52265020529988       -1.53549004136818       -0.21975276719541
H           -2.32755509409130       -1.12485815598610       -1.45860730660899
H           -2.60943583375201        0.46332470253738        1.13017223790633
H           -3.43362801625933        0.87750334435529       -0.39085363682655
H           -0.71470877120040        1.93506306850543        1.41087041176039
H            1.10192612755303        1.92517458322092       -1.05715301318124
H            1.50396363863589        2.66962105383981        0.57765021475589
H            3.13640177187422        0.65948421420884        0.78141330958544
H           -0.41566666071633       -0.34334498161220        2.37086391699966
26
 energy: -41.810310866857 gnorm: 0.004255875791 xtb: 6.7.1 (edcfbbe)
O            2.74686142202606       -0.46090524432715       -1.58826031618865
C            1.94899939119482       -0.50569190718457       -0.65392741243135
C            0.74353544071975       -1.31228407913440       -0.63771712334713
C           -0.15718586383918       -1.18937132925635        0.37296436762859
C           -1.48796704392121       -1.88272588169786        0.39133611931464
C           -2.54653071519958       -1.08516436310737       -0.38529507019278
C           -2.55991007229472        0.38783739673087        0.03724467860303
C           -1.31280393027835        1.05484665713611       -0.51300632194118
O           -1.11944204375542        1.12945915285684       -1.71136927093018
C           -0.33573068647481        1.57247421858329        0.46628191981565
C            0.90480214861211        1.99320205296170        0.00748318060153
C            2.14462300574900        0.27197507974883        0.57092810946742
O            1.42882908178801        0.04230606723121        1.67068026984752
C            0.17132251869633       -0.32189692498206        1.46079798759164
H            0.58775927603093       -1.99324944142357       -1.46076198085275
H           -1.38931211291058       -2.86964018206148       -0.06078054039780
H           -1.81894999945848       -2.00366004263035        1.42373971232520
H           -3.52500044507029       -1.53357611945145       -0.20991456257580
H           -2.33234918447708       -1.13237163950620       -1.45450463394110
H           -2.62115256651610        0.47953134605899        1.12155571678104
H           -3.42579278636587        0.87736888217899       -0.41403928689282
H           -0.71482203316092        1.92356654381943        1.41498858477164
H            1.10385848169568        1.94630227861151       -1.05167438188776
H            1.49991624158558        2.67469059775976        0.59351138930455
H            3.13256660010249        0.66385117244025        0.77396857012913
H           -0.41014712447814       -0.34734729135587        2.37495529539915
26
 energy: -41.810338418942 gnorm: 0.002332965104 xtb: 6.7.1 (edcfbbe)
O            2.74314908586793       -0.46081937545711       -1.59251871232377
C            1.94775950086161       -0.50603741404401       -0.65640382691302
C            0.74284304530549       -1.31341968230287       -0.63746216488563
C           -0.15724253058543       -1.18970441930828        0.37415064772935
C           -1.48785021278717       -1.88200048707082        0.39368034237161
C           -2.54675704376445       -1.08461110412234       -0.38346639524086
C           -2.55995165666690        0.39035521174036        0.03365050776453
C           -1.30912932695637        1.05145467152088       -0.51482020735437
O           -1.11134420489195        1.11657130098248       -1.71235953716105
C           -0.33610630749064        1.57106735893622        0.46793285260762
C            0.90391943540098        1.99631876457401        0.01264370981675
C            2.14446671191955        0.27274878026238        0.56784845559106
O            1.42977173868682        0.04408967422584        1.66784485513349
C            0.17280731991169       -0.32336537013607        1.46120589769570
H            0.58588824552219       -1.99424000836831       -1.46000601992665
H           -1.39001771243342       -2.86927765093125       -0.05849222501471
H           -1.81851577389974       -2.00255276502192        1.42647842460498
H           -3.52529166377089       -1.53208825709042       -0.20719729789246
H           -2.33263109450628       -1.13357621814236       -1.45239837227811
H           -2.62620703997560        0.48882625589260        1.11645946715043
H           -3.42460606119364        0.87601016820215       -0.42341050881182
H           -0.71837813202146        1.91895330086432        1.41694770026091
H            1.10559862437658        1.95249191491557       -1.04549333426698
H            1.49855240498823        2.67529781753750        0.60044003832694
H            3.13186514601776        0.66725660958550        0.76827977504512
H           -0.40661549791488       -0.35022207724493        2.37565092797242
26
 energy: -41.810347769202 gnorm: 0.001532926415 xtb: 6.7.1 (edcfbbe)
O            2.74128469589081       -0.45907916198190       -1.59493846429050
C            1.94741667929027       -0.50514955154679       -0.65763042169623
C            0.74278383042689       -1.31308494129156       -0.63723702042372
C           -0.15681640683276       -1.18924175801089        0.37496296874624
C           -1.48767128484126       -1.88064006855993        0.39515185749484
C           -2.54678453128283       -1.08353748094512       -0.38248711155179
C           -2.56151745075116        0.39286045808555        0.03129068220635
C           -1.30885456437880        1.05092804408424       -0.51555053977618
O           -1.10713435291121        1.10849175573390       -1.71268653734455
C           -0.33709456600275        1.56916853883313        0.46846292124451
C            0.90227219576224        1.99556229825874        0.01489032451107
C            2.14575778565415        0.27340532335891        0.56684611196157
O            1.43255781632656        0.04273498187240        1.66724806365253
C            0.17472296169537       -0.32424854559084        1.46230194903228
H            0.58466450550374       -1.99340402842006       -1.45943288210491
H           -1.39105121903237       -2.86830637465340       -0.05700451589765
H           -1.81813946520885       -2.00138569235412        1.42815094492711
H           -3.52516070131001       -1.53111127012077       -0.20612542417430
H           -2.33212560308677       -1.13366021982074       -1.45128340308074
H           -2.63036330148655        0.49470538002894        1.11297421875062
H           -3.42527351765200        0.87588274288835       -0.42964929290464
H           -0.72126229459895        1.91582050058274        1.41657717120262
H            1.10504406196492        1.95463832120768       -1.04248535100871
H            1.49816579213047        2.67179927692314        0.60335294506126
H            3.13267749373762        0.66971946332403        0.76605474172343
H           -0.40212155900673       -0.35334099188653        2.37743106374097
26
 energy: -41.810349501043 gnorm: 0.001084668053 xtb: 6.7.1 (edcfbbe)
O            2.74082685977220       -0.45942312909751       -1.59570616087628
C            1.94708645787334       -0.50563320475275       -0.65844967268130
C            0.74252865218955       -1.31349591672200       -0.63744050167581
C           -0.15652997222956       -1.19001551872553        0.37510319713783
C           -1.48815308461776       -1.88037490156515        0.39582202888897
C           -2.54696825465965       -1.08373270377224       -0.38244293607439
C           -2.56156882295295        0.39308665594623        0.03058770287949
C           -1.30764658413855        1.04934896402303       -0.51614143139212
O           -1.10412535665583        1.10399053629977       -1.71272580567452
C           -0.33741645570569        1.56962392471129        0.46914657006064
C            0.90218876528690        1.99692051707542        0.01708465575692
C            2.14598659338053        0.27340414956173        0.56534834810335
O            1.43312074967364        0.04332554783424        1.66631306104426
C            0.17507228539674       -0.32402320315858        1.46203861432939
H            0.58336350291949       -1.99306902091130       -1.45997691459254
H           -1.39246594404928       -2.86854601517744       -0.05538685875483
H           -1.81852996538425       -2.00010053671650        1.42896840827529
H           -3.52548730252681       -1.53108142009921       -0.20570075795642
H           -2.33208823310071       -1.13473370580340       -1.45126642090157
H           -2.63094281257680        0.49522152531100        1.11220616323483
H           -3.42428538925117        0.87665577851137       -0.43181750745727
H           -0.72473284549160        1.91622622837908        1.41591412471178
H            1.10665484645796        1.95631794875463       -1.04011747676701
H            1.49729762629287        2.67367078416730        0.60576233788838
H            3.13314193143095        0.66997789628455        0.76417770106165
H           -0.40035024733351       -0.35401418035894        2.37788453143276
26
 energy: -41.810350151989 gnorm: 0.000316471513 xtb: 6.7.1 (edcfbbe)
O            2.74130990954300       -0.45930841277616       -1.59513049285554
C            1.94722772341979       -0.50552134365688       -0.65798685927422
C            0.74249126744581       -1.31314145206016       -0.63758779823063
C           -0.15658103022993       -1.18985947469781        0.37491400130497
C           -1.48828456082842       -1.88025782991741        0.39555922555962
C           -2.54696509919673       -1.08369344920463       -0.38276908903101