26
 energy: -41.773581812784 gnorm: 0.195322064821 xtb: 6.7.1 (edcfbbe)
O            2.93258600000000       -0.67839800000000       -1.43445900000000
C            2.04891400000000       -0.58406300000000       -0.59853600000000
C            0.86796500000000       -1.46479900000000       -0.55394100000000
C           -0.12595700000000       -1.21891400000000        0.32902600000000
C           -1.46057100000000       -1.90171500000000        0.31303400000000
C           -2.53781400000000       -1.05870000000000       -0.40356400000000
C           -2.64122400000000        0.40189300000000        0.08235600000000
C           -1.42459200000000        1.20392300000000       -0.35168300000000
O           -1.37926700000000        1.72989400000000       -1.44505200000000
C           -0.33024457780000        1.55733342630000        0.48773517270000
C            0.89439604920000        1.92474022790000       -0.08409749330000
C            2.23321495080000        0.29394677210000        0.53886049330000
O            1.44674500000000        0.04141600000000        1.64796900000000
C            0.14462657780000       -0.35963842630000        1.45712482730000
H            0.80280500000000       -2.26385100000000       -1.29761700000000
H           -1.37880300000000       -2.87596400000000       -0.19128600000000
H           -1.78371700000000       -2.08829300000000        1.35106700000000
H           -3.51380100000000       -1.54838900000000       -0.26534200000000
H           -2.33242000000000       -1.05132900000000       -1.48609200000000
H           -2.76244000000000        0.43292200000000        1.17707100000000
H           -3.52333600000000        0.86964700000000       -0.37804200000000
H           -0.56571800000000        1.99289200000000        1.41338900000000
H            1.02057000000000        1.79094300000000       -1.08276100000000
H            1.44975500000000        2.63576600000000        0.42131100000000
H            3.06468300000000        0.85620100000000        0.65144100000000
H           -0.49037900000000       -0.25788700000000        2.24130100000000
26
 energy: -41.799747654910 gnorm: 0.060405806565 xtb: 6.7.1 (edcfbbe)
O            2.92478003864600       -0.66847874696683       -1.46192541116872
C            2.06893096831696       -0.63236022674804       -0.57538211013721
C            0.86315369136532       -1.45661144625934       -0.56686164063429
C           -0.11352511751566       -1.23064103639990        0.34709928015236
C           -1.45987496717087       -1.89541575982841        0.32070947760413
C           -2.52847868788794       -1.05578169918284       -0.40514077854656
C           -2.63087273697149        0.39811509398755        0.08660479066990
C           -1.45478595541813        1.23291944247658       -0.38482424906553
O           -1.43280312660317        1.69860982448820       -1.51644776464910
C           -0.33713259183646        1.57436083924323        0.48539785979411
C            0.88678884515221        1.93488761887667       -0.08205449507288
C            2.18433728968185        0.28234609194447        0.55264516758183
O            1.44383696476677        0.03769156892933        1.66301721427785
C            0.16770705895442       -0.33990875286585        1.43706231421269
H            0.78521591152615       -2.23003981755338       -1.32048189263675
H           -1.38215481879960       -2.86008385092981       -0.19002409612612
H           -1.78811756300790       -2.08414975670816        1.34813135607772
H           -3.49919629796275       -1.54238436584522       -0.26328563774440
H           -2.32329216064035       -1.04512630372672       -1.48078811400846
H           -2.74392724643587        0.43213567189242        1.17435680536905
H           -3.51698005244449        0.84872784145126       -0.37154568004592
H           -0.57353255806208        1.98726878166318        1.44799272324002
H            1.02065783615197        1.80098989468907       -1.12513932436196
H            1.48111794271455        2.64806585152304        0.43911867411931
H            3.08236852322106        0.83008791199304        0.69592064432645
H           -0.46824418974035       -0.28564767014351        2.28505788677234
26
 energy: -41.805845839168 gnorm: 0.025069464299 xtb: 6.7.1 (edcfbbe)
O            2.90542903477563       -0.65015114521912       -1.47002903887297
C            2.04486664540514       -0.60457537902123       -0.59031365469006
C            0.85138980183919       -1.42746171317345       -0.57453720115216
C           -0.11523697076462       -1.22253301633227        0.36041055038203
C           -1.45922643200053       -1.88859343173259        0.32847352714694
C           -2.51817807348103       -1.04928280270025       -0.40446032100380
C           -2.62263849070495        0.39987270457524        0.09086451666172
C           -1.46271094416079        1.22571019967898       -0.42686166691516
O           -1.46325514159184        1.64146603044659       -1.57750812269825
C           -0.34167707799257        1.57699763379277        0.46837641505494
C            0.88400799320165        1.93858122897908       -0.08776466570678
C            2.15700006446649        0.27680351571143        0.56873473885258
O            1.42559154197870        0.05572590199817        1.66720479786440
C            0.17266696428650       -0.32656992533363        1.43446336506521
H            0.76453931423517       -2.18515575104461       -1.33716186724033
H           -1.37555316964493       -2.84748443551263       -0.18508596288489
H           -1.79277632293493       -2.07323509056866        1.35026023159480
H           -3.48504873556151       -1.53488692795715       -0.26191082038831
H           -2.30545983299517       -1.03555353493642       -1.47470761256955
H           -2.70451782006311        0.43514634310603        1.17677553185417
H           -3.52305117578423        0.83360103730913       -0.35242424817248
H           -0.59350803794105        1.96475330833904        1.45077270247680
H            1.02007280305780        1.82748139669661       -1.15190335643752
H            1.50956928923763        2.64038154444490        0.44121191740172
H            3.12374559436160        0.74977597355729        0.76162922157467
H           -0.44006382122389       -0.34123666510324        2.33470402280201
26
 energy: -41.807395700702 gnorm: 0.021089512330 xtb: 6.7.1 (edcfbbe)
O            2.88685581272026       -0.61707014024104       -1.48109297672000
C            2.04068020476438       -0.59764193132987       -0.58473322834735
C            0.83025365591766       -1.39610946631463       -0.59019535744065
C           -0.12334036879229       -1.20889301887233        0.36475818588628
C           -1.46024735334272       -1.88480422254554        0.33822500475867
C           -2.51561589439440       -1.04972568468152       -0.40186790313852
C           -2.61360283381255        0.39949457122559        0.09306546666125
C           -1.45409467891685        1.20544541964937       -0.45398263615385
O           -1.45082852760506        1.57800235786697       -1.61689792434894
C           -0.34112886374549        1.56768490991005        0.45554775759772
C            0.88885670286601        1.93125321247393       -0.08425455587191
C            2.15499004302073        0.26908181792588        0.58712476109516
O            1.42013891836238        0.06138392964207        1.67794768199200
C            0.17293353413831       -0.32577218542578        1.44492494291209
H            0.72027333480733       -2.12804127802173       -1.37800047429823
H           -1.36982007941423       -2.84326610057567       -0.17374604579430
H           -1.79748927192588       -2.06493242242328        1.35948745914752
H           -3.48261379828077       -1.53525963303397       -0.26508896472177
H           -2.29260515152423       -1.03329826236129       -1.46986098249272
H           -2.66535264119214        0.43892618698057        1.18060466264862
H           -3.52480927172959        0.82933587459321       -0.33124672551133
H           -0.61577517355628        1.95029315845194        1.43339177358458
H            1.03148416906365        1.83414525837663       -1.15112834910400
H            1.51952361099717        2.63072378602760        0.44241214588183
H            3.12815827945328        0.72265628874669        0.79231680129699
H           -0.43084735787820       -0.35403542604382        2.35150248048048
26
 energy: -41.808559714749 gnorm: 0.014750055684 xtb: 6.7.1 (edcfbbe)
O            2.85866974946832       -0.57132503178785       -1.49571618241783
C            2.01970992619486       -0.56740151804892       -0.59514670008642
C            0.80600494043369       -1.35922158037451       -0.60470980069123
C           -0.13224351724933       -1.19842250368220        0.37056561753079
C           -1.46375685313183       -1.88187530600665        0.34839249738181
C           -2.51744803210430       -1.05362385345055       -0.40049916853522
C           -2.59964240638551        0.39697125478698        0.09564597571043
C           -1.43601797054680        1.17590139860730       -0.48196418444061
O           -1.41495143229712        1.48534916771662       -1.66166206706043
C           -0.33910642863172        1.55821846088540        0.44419421128143
C            0.89561768605430        1.92570261006751       -0.07430057048477
C            2.15647135720132        0.26168211126522        0.60346839746812
O            1.41593708157783        0.06080249809262        1.68774497843112
C            0.16940701886930       -0.32580087259236        1.45732002175589
H            0.67361381455048       -2.06291645853802       -1.41604483446985
H           -1.36605055371386       -2.84409855846281       -0.15444175437314
H           -1.80495719179346       -2.05300376263802        1.37030709068805
H           -3.48691799852527       -1.53656549616951       -0.27354085329472
H           -2.28170889030625       -1.03510416906530       -1.46619376194543
H           -2.61671887150218        0.44010932589526        1.18446880199001
H           -3.52003641302666        0.83159222995188       -0.30148558525245
H           -0.64743147661097        1.93773206780953        1.41094552101823
H            1.05418537206968        1.83415771556032       -1.13898819603557
H            1.53016949386704        2.62144137807087        0.44940911074905
H            3.13047909873974        0.69364269634768        0.82032747951672
H           -0.42730050320062       -0.35436680424044        2.36111695556557
26
 energy: -41.809094878824 gnorm: 0.009427004185 xtb: 6.7.1 (edcfbbe)
O            2.83646843178516       -0.53690779873968       -1.50867577358262
C            2.00313096726782       -0.54835359011697       -0.60405452209614
C            0.78610400808716       -1.33520041500977       -0.61579397687133
C           -0.14161088276398       -1.19316245413420        0.37035818065106
C           -1.46963642672681       -1.88420135012947        0.35629090482004
C           -2.52123202879226       -1.06009027966080       -0.40009832574540
C           -2.58567966093323        0.39316413793100        0.09352198604608
C           -1.41136031098622        1.14786330773722       -0.49571569333384
O           -1.36848105236867        1.41043464286673       -1.68381124831298
C           -0.33310252594829        1.55658938226069        0.44119459928468
C            0.90108464585633        1.93521344727425       -0.06469338776373
C            2.15326222814600        0.26149964083042        0.60642072771406
O            1.41119759165896        0.05724126869756        1.68908763465735
C            0.16204081432867       -0.32636238385632        1.46209110687891
H            0.64398285819470       -2.02491806705656       -1.43390871384915
H           -1.36847005774371       -2.85289061715673       -0.13385945701482
H           -1.81084323864583       -2.04389305086123        1.38060131850374
H           -3.49366941772531       -1.53726798512963       -0.27544350768182
H           -2.28126686638407       -1.04606037571245       -1.46501422505943
H           -2.58757135397858        0.43750989398851        1.18112313317404
H           -3.50498059866214        0.84111191638843       -0.28797637759539
H           -0.66761776680061        1.93366297531937        1.39858617818308
H            1.07311336464724        1.84343731435326       -1.12575827170168
H            1.53436570783616        2.62801440572070        0.46090435573678
H            3.12593741820484        0.67985828302187        0.82821811970747
H           -0.42918884755252       -0.35671524882614        2.36561823525054
26
 energy: -41.809460493216 gnorm: 0.012802398514 xtb: 6.7.1 (edcfbbe)
O            2.81571858730791       -0.50944253373867       -1.52558104883891
C            1.98816993567996       -0.53169401267691       -0.61681826748515
C            0.77174165429085       -1.31940373979691       -0.62410303151795
C           -0.14694900697738       -1.18978680516090        0.36924504706201
C           -1.47487626909933       -1.88465176692841        0.36408635811166
C           -2.52722725617664       -1.06738822706698       -0.39896741927034
C           -2.57687123632584        0.38951554084576        0.08579227377289
C           -1.39001669572289        1.12513496635672       -0.50251982311655
O           -1.31128747855066        1.33207547682983       -1.70199047238176
C           -0.33512594449720        1.56403895187738        0.44535206994380
C            0.90266913367411        1.94412422917291       -0.04680858633686
C            2.15449979982085        0.26209350899921        0.60206376362593
O            1.41419676508552        0.05145299581732        1.68606628223090
C            0.16006791338829       -0.32149500640411        1.46089256784636
H            0.62160821217210       -1.99946016122516       -1.44680443266578
H           -1.37349509924795       -2.86073104617125       -0.11197075508481
H           -1.81423267409762       -2.03202422480598        1.39112097035041
H           -3.50212855047077       -1.53807890831324       -0.26981639552991
H           -2.28838850930545       -1.06362144941333       -1.46409558283724
H           -2.57768302311928        0.43642869817662        1.17160445774783
H           -3.48798356394694        0.85155924411085       -0.29464796680982
H           -0.68986465642163        1.94119082258886        1.39385950812784
H            1.08605128369157        1.85360590122953       -1.10514210472380
H            1.53261820878104        2.63399331122394        0.48537493462671
H            3.13143199741477        0.66444340861676        0.82677410464554
H           -0.42666652734652       -0.35230217414377        2.36624654850653
26
 energy: -41.809810355148 gnorm: 0.009977259070 xtb: 6.7.1 (edcfbbe)
O            2.78843529500973       -0.47966473363328       -1.54506353608147
C            1.96906195850511       -0.51558096546843       -0.62932667471643
C            0.75645591644434       -1.30927710822309       -0.62962303229129
C           -0.15366145643263       -1.19027049404360        0.36988374464022
C           -1.48302870387460       -1.88654555957367        0.37327933298118
C           -2.53618061500905       -1.07779029259615       -0.39834373946934
C           -2.56405998217430        0.38399599240583        0.07124836580973
C           -1.35551433879376        1.09233608198296       -0.50946878565673
O           -1.24022513337443        1.25579548094428       -1.70691343368259
C           -0.32937211129938        1.56776603479725        0.44845527745950
C            0.90706898799647        1.96602380354405       -0.03278456882915
C            2.14867964343653        0.26710409177303        0.59403064344340
O            1.41554982483235        0.04480879255083        1.68368847209630
C            0.15724714305959       -0.32079653697994        1.46240902862236
H            0.60170477590856       -1.98285137148352       -1.45540411128073
H           -1.38235621712902       -2.87055512172411       -0.08703504304462
H           -1.81915249927394       -2.01953549746641        1.40351492154839
H           -3.51420243937856       -1.53812401110855       -0.25499087473323
H           -2.30433331955442       -1.09118353295972       -1.46491051423159
H           -2.57146062226868        0.43518192837535        1.15635424214785
H           -3.46129398420058        0.86667950666085       -0.31633267891704
H           -0.70070214425664        1.93506064646462        1.39379846091137
H            1.09770250607107        1.88781391070201       -1.09039701694305
H            1.52684810326688        2.65171629885586        0.51699087746854
H            3.12982425258897        0.65690625750039        0.81652281592220
H           -0.42705784009860       -0.34943660129675        2.36963082682577
26
 energy: -41.810019528148 gnorm: 0.018083796682 xtb: 6.7.1 (edcfbbe)
O            2.76460234137782       -0.46085781442830       -1.56833194962720
C            1.95590403526165       -0.50665838920278       -0.64303678399425
C            0.74453766847081       -1.30330784104821       -0.63809022717686
C           -0.15794418099356       -1.18939615235546        0.36914607729516
C           -1.48805186663405       -1.88637805352974        0.38199021103557
C           -2.54318196521845       -1.08381718121428       -0.39299665863341
C           -2.55808679025236        0.38293886273853        0.05748687867764
C           -1.32824120942991        1.06654529404482       -0.51196444832920
O           -1.16379094214641        1.16663977932397       -1.71936692626296
C           -0.33125181085159        1.57493169548605        0.45902569579327
C            0.90803128579898        1.98235314410310       -0.00953658140856
C            2.14665698442202        0.26892081011461        0.58303326458334
O            1.41855453231508        0.04523447044720        1.67702831412124
C            0.15957421045486       -0.31918857978215        1.46058160538465
H            0.58735276825058       -1.97627271502575       -1.46389935153028
H           -1.38806340350705       -2.87420644754357       -0.06953637430893
H           -1.82059036862575       -2.00985268142718        1.41419176194723
H           -3.52242844226349       -1.53676254348654       -0.23431762650974
H           -2.31972127967594       -1.11405174280080       -1.46117363204008
H           -2.58382979547399        0.44745599919638        1.14232631581827
H           -3.43935792541945        0.87721341194461       -0.35304518294236
H           -0.71476956842914        1.93940165459339        1.40029148008741
H            1.10562129566506        1.91505697484182       -1.06724664423518
H            1.51527996787077        2.66822961901358        0.55590851365014
H            3.13210126061870        0.65234521050902        0.79924663771129
H           -0.42292980158412       -0.34693978451222        2.37149863089343
26
 energy: -41.810231733080 gnorm: 0.006227128572 xtb: 6.7.1 (edcfbbe)
O            2.75952593818899       -0.46855005770775       -1.57765055721567
C            1.95634081803332       -0.51059156646925       -0.64796980148492
C            0.74690849769807       -1.31157556445250       -0.63750755720819
C           -0.15563578179428       -1.18983881154359        0.37023951869621
C           -1.48705247107889       -1.88385833535742        0.38604494604005
C           -2.54440730239561       -1.08424229584079       -0.38948420214906
C           -2.56190253571986        0.38543765285429        0.04491123462860
C           -1.32472730227688        1.06546116656462       -0.50929990867475
O           -1.14611616313225        1.16106682865174       -1.70810894654098
C           -0.33803700640585        1.57628379114907        0.46508337271559
C            0.90431225803038        1.98403604327187        0.00151682243860
C            2.14920999642408        0.27011149367930        0.57416744986401
O            1.42562290274920        0.04775893077423        1.67128950758323
C            0.16792907220319       -0.31868122660705        1.45824688758849
H            0.59258752812079       -1.99266403201251       -1.45875267559399
H           -1.38832100295830       -2.87077346202489       -0.06615556718146
H           -1.81892748187014       -2.00630874186471        1.41803355581986
H           -3.52265536633256       -1.53547682561400       -0.21975220127278
H           -2.32755880184691       -1.12484957656777       -1.45860655205984
H           -2.60943515270243        0.46333576443365        1.13017145837795
H           -3.43362515810314        0.87751560015745       -0.39085459041469
H           -0.71470360013276        1.93506696063537        1.41087005055167
H            1.10193360203646        1.92516817600093       -1.05715132513909
H            1.50397415346470        2.66961377406416        0.57765051668396
H            3.13640543810500        0.65947301813404        0.78141708025331
H           -0.41566807830329       -0.34334170430841        2.37086448369355
26
 energy: -41.810310869303 gnorm: 0.004254832036 xtb: 6.7.1 (edcfbbe)
O            2.74686186758545       -0.46091489998157       -1.58825655945501
C            1.94899865379962       -0.50569869190940       -0.65392447811635
C            0.74353178344911       -1.31228638453716       -0.63771494668576
C           -0.15718980623961       -1.18937042555666        0.37296581716887
C           -1.48797350472246       -1.88272009740847        0.39133675113137
C           -2.54653414600862       -1.08515455205698       -0.38529444345531
C           -2.55990831355853        0.38784728006757        0.03724523676053
C           -1.31280030088551        1.05485252324382       -0.51300606685372
O           -1.11943925534608        1.12946533321248       -1.71136838115462
C           -0.33572453306843        1.57247585743443        0.46628186007169
C            0.90480979255830        1.99319915241509        0.00748332853037
C            2.14462384831062        0.27196804347342        0.57093077159484
O            1.42882814203360        0.04230213820621        1.67068242700192
C            0.17132039373315       -0.32189667295590        1.46079941713934
H            0.58775350091557       -1.99325087745264       -1.46076002764776
H           -1.38932205610230       -2.86963469974830       -0.06078018649196
H           -1.81895717660047       -2.00365355505701        1.42374026247895
H           -3.52500549743508       -1.53356271873673       -0.20991416619502
H           -2.33235265979584       -1.13236268682053       -1.45450392795903
H           -2.62115035498284        0.47954160274413        1.12155608381301
H           -3.42578941407628        0.87738137259906       -0.41403855173514
H           -0.71481538995777        1.92357021323837        1.41498794649143
H            1.10386641020520        1.94629789943752       -1.05167405932870
H            1.49992660823862        2.67468580195360        0.59351060203903
H            3.13256834878721        0.66384097768294        0.77397215362251
H           -0.41014994083559       -0.34734493348719        2.37495613723420
26
 energy: -41.810338417317 gnorm: 0.002333166024 xtb: 6.7.1 (edcfbbe)
O            2.74314875043844       -0.46082850116975       -1.59251586418196
C            1.94775843661602       -0.50604383370644       -0.65640139311789
C            0.74283878380934       -1.31342141837641       -0.63746070491575
C           -0.15724675697825       -1.18970307270030        0.37415168454515
C           -1.48785693644420       -1.88199457824847        0.39368112475380
C           -2.54676098032250       -1.08460154523642       -0.38346562427644
C           -2.55995000399845        0.39036498293057        0.03365060245456
C           -1.30912457744386        1.05145903117178       -0.51481993133889
O           -1.11133751214703        1.11657296310495       -1.71235942964670
C           -0.33610062186730        1.57106960964896        0.46793346415324
C            0.90392698234415        1.99631619344126        0.01264491732229
C            2.14446783373379        0.27274189806041        0.56785068328940
O            1.42977108461918        0.04408603203736        1.66784675462378
C            0.17280546605188       -0.32336482673245        1.46120710155973
H            0.58588218733455       -1.99424145789005       -1.46000424017227
H           -1.39002783742636       -2.86927202485383       -0.05849147974552
H           -1.81852288979900       -2.00254590903943        1.42647915749371
H           -3.52529720355835       -1.53207492887460       -0.20719577502790
H           -2.33263563472435       -1.13356815685601       -1.45239768382961
H           -2.62620533108750        0.48883656247687        1.11645961381674
H           -3.42460208768843        0.87602365946272       -0.42341110942635
H           -0.71837219003800        1.91895784317902        1.41694750177901
H            1.10560670438896        1.95248805914471       -1.04549206311469
H            1.49856188908522        2.67529366811723        0.60044124396829
H            3.13186757959513        0.66724601347585        0.76828264143715
H           -0.40661813449200       -0.35021926256742        2.37565180759681
26
 energy: -41.810347767452 gnorm: 0.001532706465 xtb: 6.7.1 (edcfbbe)
O            2.74128516583159       -0.45908937190379       -1.59493473732999
C            1.94741603916780       -0.50515640590996       -0.65762743609463
C            0.74278031613902       -1.31308747239978       -0.63723481842784
C           -0.15682043409169       -1.18924054099390        0.37496426663867
C           -1.48767773847565       -1.88063413233857        0.39515229618571
C           -2.54678812751968       -1.08352759661340       -0.38248653789345
C           -2.56151596450025        0.39287038127376        0.03129128659090
C           -1.30885096354892        1.05093374376205       -0.51555005161286
O           -1.10713112410521        1.10849731705016       -1.71268592553591
C           -0.33708857424129        1.56917037045723        0.46846310859745
C            0.90227973029392        1.99555939406167        0.01489030284230
C            2.14575860204098        0.27339843843909        0.56684885839831
O            1.43255700592326        0.04273099783104        1.66725034915339
C            0.17472109575589       -0.32424822232680        1.46230329007203
H            0.58465926093781       -1.99340629764939       -1.45943068006656
H           -1.39106092739691       -2.86830043698166       -0.05700471126466
H           -1.81814659273724       -2.00137924016804        1.42815121446836
H           -3.52516583349119       -1.53109798396953       -0.20612480909097
H           -2.33212944329439       -1.13365094992374       -1.45128280870890
H           -2.63036142591006        0.49471566577976        1.11297477988951
H           -3.42527050348100        0.87589532791501       -0.42964869953925
H           -0.72125500869831        1.91582430306111        1.41657719282779
H            1.10505164970188        1.95463390898955       -1.04248531466906
H            1.49817564273974        2.67179472096702        0.60335246104009
H            3.13267940893056        0.66970952456599        0.76605817393360
H           -0.40212425596959       -0.35333844297476        2.37743194959567
26
 energy: -41.810349499259 gnorm: 0.001084599006 xtb: 6.7.1 (edcfbbe)
O            2.74082656700969       -0.45943269789458       -1.59570333727349
C            1.94708542691075       -0.50563956405861       -0.65844732926903
C            0.74252469404298       -1.31349798525045       -0.63743867469835
C           -0.15653415562045       -1.19001402195926        0.37510439850154
C           -1.48815966856714       -1.88036886166008        0.39582281871343
C           -2.54697213950055       -1.08372306900878       -0.38244222298017
C           -2.56156721434070        0.39309653854830        0.03058771312842
C           -1.30764218928658        1.04935369740443       -0.51614124921638
O           -1.10411970140064        1.10399310730698       -1.71272569488945
C           -0.33741101245291        1.56962616826199        0.46914709719337
C            0.90219616690230        1.99691776720208        0.01708574889584
C            2.14598775370953        0.27339730864732        0.56535068473052
O            1.43312030384116        0.04332159103925        1.66631497143997
C            0.17507062435131       -0.32402257364051        1.46203976634291
H            0.58335775939544       -1.99307087166404       -1.45997491503542
H           -1.39247574768481       -2.86854025455765       -0.05538617167524
H           -1.81853715479050       -2.00009350498713        1.42896912908249
H           -3.52549279202931       -1.53106812742372       -0.20569955309127
H           -2.33209259106914       -1.13472531297770       -1.45126576293844
H           -2.63094128482502        0.49523221644245        1.11220614422821
H           -3.42428171209235        0.87666888992580       -0.43181808573900
H           -0.72472651391080        1.91623018544564        1.41591440179641
H            1.10666272642777        1.95631379547476       -1.04011623199567
H            1.49730704441905        2.67366628990828        0.60576348788886
H            3.13314447681441        0.66996747067155        0.76418056931634
H           -0.40035266625242       -0.35401118119619        2.37788529754329
26
 energy: -41.810350150373 gnorm: 0.000316393881 xtb: 6.7.1 (edcfbbe)
O            2.74130970463018       -0.45931818903619       -1.59512752104595
C            1.94722645755874       -0.50552748993616       -0.65798481623081
C            0.74248746598792       -1.31314379989323       -0.63758589507196
C           -0.15658527680081       -1.18985808179825        0.37491497729393
C           -1.48829121324178       -1.88025190867938        0.39555979508996
C           -2.54696915395264       -1.08368386039172       -0.38276841962258