 Entering Gaussian System, Link 0=g16
 Initial command:
 /root/g16/l1.exe "/root/g16/scratch/gau_root_13147/Gau-13154.inp" -scrdir="/root/g16/scratch/gau_root_13147/"
 Entering Link 1 = /root/g16/l1.exe PID=     13156.
  
 Copyright (c) 1988,1990,1992,1993,1995,1998,2003,2009,2016,
            Gaussian, Inc.  All Rights Reserved.
  
 This is part of the Gaussian(R) 16 program.  It is based on
 the Gaussian(R) 09 system (copyright 2009, Gaussian, Inc.),
 the Gaussian(R) 03 system (copyright 2003, Gaussian, Inc.),
 the Gaussian(R) 98 system (copyright 1998, Gaussian, Inc.),
 the Gaussian(R) 94 system (copyright 1995, Gaussian, Inc.),
 the Gaussian 92(TM) system (copyright 1992, Gaussian, Inc.),
 the Gaussian 90(TM) system (copyright 1990, Gaussian, Inc.),
 the Gaussian 88(TM) system (copyright 1988, Gaussian, Inc.),
 the Gaussian 86(TM) system (copyright 1986, Carnegie Mellon
 University), and the Gaussian 82(TM) system (copyright 1983,
 Carnegie Mellon University). Gaussian is a federally registered
 trademark of Gaussian, Inc.
  
 This software contains proprietary and confidential information,
 including trade secrets, belonging to Gaussian, Inc.
  
 This software is provided under written license and may be
 used, copied, transmitted, or stored only in accord with that
 written license.
  
 The following legend is applicable only to US Government
 contracts under FAR:
  
                    RESTRICTED RIGHTS LEGEND
  
 Use, reproduction and disclosure by the US Government is
 subject to restrictions as set forth in subparagraphs (a)
 and (c) of the Commercial Computer Software - Restricted
 Rights clause in FAR 52.227-19.
  
 Gaussian, Inc.
 340 Quinnipiac St., Bldg. 40, Wallingford CT 06492
  
  
 ---------------------------------------------------------------
 Warning -- This program may not be used in any manner that
 competes with the business of Gaussian, Inc. or will provide
 assistance to any competitor of Gaussian, Inc.  The licensee
 of this program is prohibited from giving any competitor of
 Gaussian, Inc. access to this program.  By using this program,
 the user acknowledges that Gaussian, Inc. is engaged in the
 business of creating and licensing software in the field of
 computational chemistry and represents and warrants to the
 licensee that it is not a competitor of Gaussian, Inc. and that
 it will not use this program in any manner prohibited above.
 ---------------------------------------------------------------
  

 Cite this work as:
 Gaussian 16, Revision A.03,
 M. J. Frisch, G. W. Trucks, H. B. Schlegel, G. E. Scuseria, 
 M. A. Robb, J. R. Cheeseman, G. Scalmani, V. Barone, 
 G. A. Petersson, H. Nakatsuji, X. Li, M. Caricato, A. V. Marenich, 
 J. Bloino, B. G. Janesko, R. Gomperts, B. Mennucci, H. P. Hratchian, 
 J. V. Ortiz, A. F. Izmaylov, J. L. Sonnenberg, D. Williams-Young, 
 F. Ding, F. Lipparini, F. Egidi, J. Goings, B. Peng, A. Petrone, 
 T. Henderson, D. Ranasinghe, V. G. Zakrzewski, J. Gao, N. Rega, 
 G. Zheng, W. Liang, M. Hada, M. Ehara, K. Toyota, R. Fukuda, 
 J. Hasegawa, M. Ishida, T. Nakajima, Y. Honda, O. Kitao, H. Nakai, 
 T. Vreven, K. Throssell, J. A. Montgomery, Jr., J. E. Peralta, 
 F. Ogliaro, M. J. Bearpark, J. J. Heyd, E. N. Brothers, K. N. Kudin, 
 V. N. Staroverov, T. A. Keith, R. Kobayashi, J. Normand, 
 K. Raghavachari, A. P. Rendell, J. C. Burant, S. S. Iyengar, 
 J. Tomasi, M. Cossi, J. M. Millam, M. Klene, C. Adamo, R. Cammi, 
 J. W. Ochterski, R. L. Martin, K. Morokuma, O. Farkas, 
 J. B. Foresman, and D. J. Fox, Gaussian, Inc., Wallingford CT, 2016.
 
 ******************************************
 Gaussian 16:  ES64L-G16RevA.03 25-Dec-2016
                27-Jan-2026 
 ******************************************
 %chk=ts_guess.chk
 %mem=32GB
 %nprocshared=16
 Will use up to   16 processors via shared memory.
 -------------------------------------
 #p Opt=(TS, CalcFC, NoEigenTest) Freq
 -------------------------------------
 1/5=1,10=4,11=1,18=20,38=1/1,3;
 2/9=110,12=2,17=6,18=5,40=1/2;
 3/11=9,25=1,30=1,71=2,140=1/1,2,3;
 4//1;
 5/5=2,38=5/2;
 8/6=4,10=90,11=11/1;
 11/6=1,8=1,9=11,15=111,16=1/1,2,10;
 10/6=1,13=1/2;
 6/7=2,8=2,9=2,10=2,28=1/1;
 7/10=1,18=20,25=1/1,2,3,16;
 1/5=1,10=4,11=1,18=20/3(2);
 2/9=110/2;
 99//99;
 2/9=110/2;
 3/11=9,25=1,30=1,71=1/1,2,3;
 4/5=5,16=3,69=1/1;
 5/5=2,38=5/2;
 7//1,2,3,16;
 1/5=1,11=1,18=20/3(-5);
 2/9=110/2;
 6/7=2,8=2,9=2,10=2,19=2,28=1/1;
 99/9=1/99;
 Leave Link    1 at Tue Jan 27 17:49:19 2026, MaxMem=  4294967296 cpu:               0.3 elap:               0.0
 (Enter /root/g16/l101.exe)
 --------
 ts_guess
 --------
 Symbolic Z-matrix:
 Charge =  0 Multiplicity = 1
 O                     2.74131  -0.45932  -1.59513 
 C                     1.94723  -0.50553  -0.65798 
 C                     0.74249  -1.31314  -0.63759 
 C                    -0.15659  -1.18986   0.37492 
 C                    -1.48829  -1.88025   0.39556 
 C                    -2.54697  -1.08368  -0.38277 
 C                    -2.56165   0.39282   0.03099 
 C                    -1.30816   1.04985  -0.51564 
 O                    -1.10486   1.10518  -1.71213 
 C                    -0.33693   1.56922   0.46895 
 C                     0.90236   1.99629   0.01596 
 C                     2.14593   0.2734    0.56591 
 O                     1.43305   0.04302   1.66693 
 C                     0.17499  -0.32427   1.46239 
 H                     0.58348  -1.99278  -1.46011 
 H                    -1.39252  -2.86846  -0.05547 
 H                    -1.81861  -1.9997    1.4287 
 H                    -3.52547  -1.53123  -0.20643 
 H                    -2.33201  -1.13415  -1.45154 
 H                    -2.63079   0.4941    1.11277 
 H                    -3.42439   0.87674  -0.4309 
 H                    -0.72413   1.91608   1.41555 
 H                     1.10626   1.95583  -1.04147 
 H                     1.49775   2.67325   0.60456 
 H                     3.13282   0.6705    0.76485 
 H                    -0.40029  -0.3543    2.37832 
 
 ITRead=  0  0  0  0  0  0  0  0  0  0  0  0  0  0  0  0  0  0  0  0
 ITRead=  0  0  0  0  0  0
 MicOpt= -1 -1 -1 -1 -1 -1 -1 -1 -1 -1 -1 -1 -1 -1 -1 -1 -1 -1 -1 -1
 MicOpt= -1 -1 -1 -1 -1 -1
 NAtoms=     26 NQM=       26 NQMF=       0 NMMI=      0 NMMIF=      0
                NMic=       0 NMicF=      0.
                    Isotopes and Nuclear Properties:
 (Nuclear quadrupole moments (NQMom) in fm**2, nuclear magnetic moments (NMagM)
  in nuclear magnetons)

  Atom         1           2           3           4           5           6           7           8           9          10
 IAtWgt=          16          12          12          12          12          12          12          12          16          12
 AtmWgt=  15.9949146  12.0000000  12.0000000  12.0000000  12.0000000  12.0000000  12.0000000  12.0000000  15.9949146  12.0000000
 NucSpn=           0           0           0           0           0           0           0           0           0           0
 AtZEff=  -0.0000000  -0.0000000  -0.0000000  -0.0000000  -0.0000000  -0.0000000  -0.0000000  -0.0000000  -0.0000000  -0.0000000
 NQMom=    0.0000000   0.0000000   0.0000000   0.0000000   0.0000000   0.0000000   0.0000000   0.0000000   0.0000000   0.0000000
 NMagM=    0.0000000   0.0000000   0.0000000   0.0000000   0.0000000   0.0000000   0.0000000   0.0000000   0.0000000   0.0000000
 AtZNuc=   8.0000000   6.0000000   6.0000000   6.0000000   6.0000000   6.0000000   6.0000000   6.0000000   8.0000000   6.0000000

  Atom        11          12          13          14          15          16          17          18          19          20
 IAtWgt=          12          12          16          12           1           1           1           1           1           1
 AtmWgt=  12.0000000  12.0000000  15.9949146  12.0000000   1.0078250   1.0078250   1.0078250   1.0078250   1.0078250   1.0078250
 NucSpn=           0           0           0           0           1           1           1           1           1           1
 AtZEff=  -0.0000000  -0.0000000  -0.0000000  -0.0000000  -0.0000000  -0.0000000  -0.0000000  -0.0000000  -0.0000000  -0.0000000
 NQMom=    0.0000000   0.0000000   0.0000000   0.0000000   0.0000000   0.0000000   0.0000000   0.0000000   0.0000000   0.0000000
 NMagM=    0.0000000   0.0000000   0.0000000   0.0000000   2.7928460   2.7928460   2.7928460   2.7928460   2.7928460   2.7928460
 AtZNuc=   6.0000000   6.0000000   8.0000000   6.0000000   1.0000000   1.0000000   1.0000000   1.0000000   1.0000000   1.0000000

  Atom        21          22          23          24          25          26
 IAtWgt=           1           1           1           1           1           1
 AtmWgt=   1.0078250   1.0078250   1.0078250   1.0078250   1.0078250   1.0078250
 NucSpn=           1           1           1           1           1           1
 AtZEff=  -0.0000000  -0.0000000  -0.0000000  -0.0000000  -0.0000000  -0.0000000
 NQMom=    0.0000000   0.0000000   0.0000000   0.0000000   0.0000000   0.0000000
 NMagM=    2.7928460   2.7928460   2.7928460   2.7928460   2.7928460   2.7928460
 AtZNuc=   1.0000000   1.0000000   1.0000000   1.0000000   1.0000000   1.0000000
 Leave Link  101 at Tue Jan 27 17:49:20 2026, MaxMem=  4294967296 cpu:              11.0 elap:               0.7
 (Enter /root/g16/l103.exe)

 GradGradGradGradGradGradGradGradGradGradGradGradGradGradGradGradGradGrad
 Berny optimization.
 Initialization pass.
                           ----------------------------
                           !    Initial Parameters    !
                           ! (Angstroms and Degrees)  !
 --------------------------                            --------------------------
 ! Name  Definition              Value          Derivative Info.                !
 --------------------------------------------------------------------------------
 ! R1    R(1,2)                  1.2292         calculate D2E/DX2 analytically  !
 ! R2    R(2,3)                  1.4505         calculate D2E/DX2 analytically  !
 ! R3    R(2,12)                 1.4643         calculate D2E/DX2 analytically  !
 ! R4    R(3,4)                  1.3597         calculate D2E/DX2 analytically  !
 ! R5    R(3,15)                 1.0788         calculate D2E/DX2 analytically  !
 ! R6    R(4,5)                  1.5002         calculate D2E/DX2 analytically  !
 ! R7    R(4,14)                 1.4289         calculate D2E/DX2 analytically  !
 ! R8    R(5,6)                  1.5366         calculate D2E/DX2 analytically  !
 ! R9    R(5,16)                 1.0905         calculate D2E/DX2 analytically  !
 ! R10   R(5,17)                 1.0912         calculate D2E/DX2 analytically  !
 ! R11   R(6,7)                  1.5334         calculate D2E/DX2 analytically  !
 ! R12   R(6,18)                 1.0904         calculate D2E/DX2 analytically  !
 ! R13   R(6,19)                 1.0913         calculate D2E/DX2 analytically  !
 ! R14   R(7,8)                  1.5172         calculate D2E/DX2 analytically  !
 ! R15   R(7,20)                 1.0887         calculate D2E/DX2 analytically  !
 ! R16   R(7,21)                 1.0917         calculate D2E/DX2 analytically  !
 ! R17   R(8,9)                  1.2149         calculate D2E/DX2 analytically  !
 ! R18   R(8,10)                 1.4773         calculate D2E/DX2 analytically  !
 ! R19   R(10,11)                1.3869         calculate D2E/DX2 analytically  !
 ! R20   R(10,22)                1.0799         calculate D2E/DX2 analytically  !
 ! R21   R(11,23)                1.0777         calculate D2E/DX2 analytically  !
 ! R22   R(11,24)                1.0767         calculate D2E/DX2 analytically  !
 ! R23   R(12,13)                1.3317         calculate D2E/DX2 analytically  !
 ! R24   R(12,25)                1.0822         calculate D2E/DX2 analytically  !
 ! R25   R(13,14)                1.3264         calculate D2E/DX2 analytically  !
 ! R26   R(14,26)                1.082          calculate D2E/DX2 analytically  !
 ! A1    A(1,2,3)              124.6247         calculate D2E/DX2 analytically  !
 ! A2    A(1,2,12)             121.9768         calculate D2E/DX2 analytically  !
 ! A3    A(3,2,12)             113.3986         calculate D2E/DX2 analytically  !
 ! A4    A(2,3,4)              120.6095         calculate D2E/DX2 analytically  !
 ! A5    A(2,3,15)             117.5465         calculate D2E/DX2 analytically  !
 ! A6    A(4,3,15)             121.8332         calculate D2E/DX2 analytically  !
 ! A7    A(3,4,5)              123.7458         calculate D2E/DX2 analytically  !
 ! A8    A(3,4,14)             117.9188         calculate D2E/DX2 analytically  !
 ! A9    A(5,4,14)             118.3135         calculate D2E/DX2 analytically  !
 ! A10   A(4,5,6)              111.4731         calculate D2E/DX2 analytically  !
 ! A11   A(4,5,16)             109.4748         calculate D2E/DX2 analytically  !
 ! A12   A(4,5,17)             109.3974         calculate D2E/DX2 analytically  !
 ! A13   A(6,5,16)             108.7104         calculate D2E/DX2 analytically  !
 ! A14   A(6,5,17)             109.1328         calculate D2E/DX2 analytically  !
 ! A15   A(16,5,17)            108.6013         calculate D2E/DX2 analytically  !
 ! A16   A(5,6,7)              111.6582         calculate D2E/DX2 analytically  !
 ! A17   A(5,6,18)             108.8807         calculate D2E/DX2 analytically  !
 ! A18   A(5,6,19)             109.656          calculate D2E/DX2 analytically  !
 ! A19   A(7,6,18)             110.059          calculate D2E/DX2 analytically  !
 ! A20   A(7,6,19)             108.099          calculate D2E/DX2 analytically  !
 ! A21   A(18,6,19)            108.4312         calculate D2E/DX2 analytically  !
 ! A22   A(6,7,8)              108.1714         calculate D2E/DX2 analytically  !
 ! A23   A(6,7,20)             110.9955         calculate D2E/DX2 analytically  !
 ! A24   A(6,7,21)             108.6759         calculate D2E/DX2 analytically  !
 ! A25   A(8,7,20)             111.7273         calculate D2E/DX2 analytically  !
 ! A26   A(8,7,21)             107.9699         calculate D2E/DX2 analytically  !
 ! A27   A(20,7,21)            109.2061         calculate D2E/DX2 analytically  !
 ! A28   A(7,8,9)              120.8517         calculate D2E/DX2 analytically  !
 ! A29   A(7,8,10)             117.0843         calculate D2E/DX2 analytically  !
 ! A30   A(9,8,10)             122.0294         calculate D2E/DX2 analytically  !
 ! A31   A(8,10,11)            118.5577         calculate D2E/DX2 analytically  !
 ! A32   A(8,10,22)            117.4768         calculate D2E/DX2 analytically  !
 ! A33   A(11,10,22)           120.5152         calculate D2E/DX2 analytically  !
 ! A34   A(10,11,23)           118.5551         calculate D2E/DX2 analytically  !
 ! A35   A(10,11,24)           120.6109         calculate D2E/DX2 analytically  !
 ! A36   A(23,11,24)           117.0898         calculate D2E/DX2 analytically  !
 ! A37   A(2,12,13)            121.7603         calculate D2E/DX2 analytically  !
 ! A38   A(2,12,25)            118.2017         calculate D2E/DX2 analytically  !
 ! A39   A(13,12,25)           113.556          calculate D2E/DX2 analytically  !
 ! A40   A(12,13,14)           115.3479         calculate D2E/DX2 analytically  !
 ! A41   A(4,14,13)            120.3433         calculate D2E/DX2 analytically  !
 ! A42   A(4,14,26)            120.2682         calculate D2E/DX2 analytically  !
 ! A43   A(13,14,26)           112.4206         calculate D2E/DX2 analytically  !
 ! D1    D(1,2,3,4)           -172.5088         calculate D2E/DX2 analytically  !
 ! D2    D(1,2,3,15)             6.3169         calculate D2E/DX2 analytically  !
 ! D3    D(12,2,3,4)             7.4962         calculate D2E/DX2 analytically  !
 ! D4    D(12,2,3,15)         -173.6781         calculate D2E/DX2 analytically  !
 ! D5    D(1,2,12,13)         -167.4042         calculate D2E/DX2 analytically  !
 ! D6    D(1,2,12,25)          -17.4865         calculate D2E/DX2 analytically  !
 ! D7    D(3,2,12,13)           12.591          calculate D2E/DX2 analytically  !
 ! D8    D(3,2,12,25)          162.5087         calculate D2E/DX2 analytically  !
 ! D9    D(2,3,4,5)            173.3619         calculate D2E/DX2 analytically  !
 ! D10   D(2,3,4,14)            -4.902          calculate D2E/DX2 analytically  !
 ! D11   D(15,3,4,5)            -5.4126         calculate D2E/DX2 analytically  !
 ! D12   D(15,3,4,14)          176.3235         calculate D2E/DX2 analytically  !
 ! D13   D(3,4,5,6)            -84.2177         calculate D2E/DX2 analytically  !
 ! D14   D(3,4,5,16)            36.0961         calculate D2E/DX2 analytically  !
 ! D15   D(3,4,5,17)           154.9914         calculate D2E/DX2 analytically  !
 ! D16   D(14,4,5,6)            94.0398         calculate D2E/DX2 analytically  !
 ! D17   D(14,4,5,16)         -145.6465         calculate D2E/DX2 analytically  !
 ! D18   D(14,4,5,17)          -26.7511         calculate D2E/DX2 analytically  !
 ! D19   D(3,4,14,13)          -18.3607         calculate D2E/DX2 analytically  !
 ! D20   D(3,4,14,26)         -166.9358         calculate D2E/DX2 analytically  !
 ! D21   D(5,4,14,13)          163.279          calculate D2E/DX2 analytically  !
 ! D22   D(5,4,14,26)           14.7039         calculate D2E/DX2 analytically  !
 ! D23   D(4,5,6,7)            -49.1237         calculate D2E/DX2 analytically  !
 ! D24   D(4,5,6,18)          -170.8483         calculate D2E/DX2 analytically  !
 ! D25   D(4,5,6,19)            70.6635         calculate D2E/DX2 analytically  !
 ! D26   D(16,5,6,7)          -169.8859         calculate D2E/DX2 analytically  !
 ! D27   D(16,5,6,18)           68.3894         calculate D2E/DX2 analytically  !
 ! D28   D(16,5,6,19)          -50.0987         calculate D2E/DX2 analytically  !
 ! D29   D(17,5,6,7)            71.822          calculate D2E/DX2 analytically  !
 ! D30   D(17,5,6,18)          -49.9026         calculate D2E/DX2 analytically  !
 ! D31   D(17,5,6,19)         -168.3908         calculate D2E/DX2 analytically  !
 ! D32   D(5,6,7,8)             71.6957         calculate D2E/DX2 analytically  !
 ! D33   D(5,6,7,20)           -51.2125         calculate D2E/DX2 analytically  !
 ! D34   D(5,6,7,21)          -171.3227         calculate D2E/DX2 analytically  !
 ! D35   D(18,6,7,8)          -167.2627         calculate D2E/DX2 analytically  !
 ! D36   D(18,6,7,20)           69.8292         calculate D2E/DX2 analytically  !
 ! D37   D(18,6,7,21)          -50.281          calculate D2E/DX2 analytically  !
 ! D38   D(19,6,7,8)           -49.0047         calculate D2E/DX2 analytically  !
 ! D39   D(19,6,7,20)         -171.9128         calculate D2E/DX2 analytically  !
 ! D40   D(19,6,7,21)           67.9769         calculate D2E/DX2 analytically  !
 ! D41   D(6,7,8,9)             61.9619         calculate D2E/DX2 analytically  !
 ! D42   D(6,7,8,10)          -115.9412         calculate D2E/DX2 analytically  !
 ! D43   D(20,7,8,9)          -175.576          calculate D2E/DX2 analytically  !
 ! D44   D(20,7,8,10)            6.5208         calculate D2E/DX2 analytically  !
 ! D45   D(21,7,8,9)           -55.4745         calculate D2E/DX2 analytically  !
 ! D46   D(21,7,8,10)          126.6223         calculate D2E/DX2 analytically  !
 ! D47   D(7,8,10,11)          170.6746         calculate D2E/DX2 analytically  !
 ! D48   D(7,8,10,22)          -30.1543         calculate D2E/DX2 analytically  !
 ! D49   D(9,8,10,11)           -7.2021         calculate D2E/DX2 analytically  !
 ! D50   D(9,8,10,22)          151.9691         calculate D2E/DX2 analytically  !
 ! D51   D(8,10,11,23)           1.3838         calculate D2E/DX2 analytically  !
 ! D52   D(8,10,11,24)         158.9588         calculate D2E/DX2 analytically  !
 ! D53   D(22,10,11,23)       -157.1355         calculate D2E/DX2 analytically  !
 ! D54   D(22,10,11,24)          0.4394         calculate D2E/DX2 analytically  !
 ! D55   D(2,12,13,14)         -34.8955         calculate D2E/DX2 analytically  !
 ! D56   D(25,12,13,14)        173.9139         calculate D2E/DX2 analytically  !
 ! D57   D(12,13,14,4)          37.7749         calculate D2E/DX2 analytically  !
 ! D58   D(12,13,14,26)       -171.377          calculate D2E/DX2 analytically  !
 --------------------------------------------------------------------------------
 Trust Radius=3.00D-01 FncErr=1.00D-07 GrdErr=1.00D-07 EigMax=2.50D+02 EigMin=1.00D-04
 Number of steps in this run=    137 maximum allowed number of steps=    156.
 Search for a saddle point of order  1.
 GradGradGradGradGradGradGradGradGradGradGradGradGradGradGradGradGradGrad

 Leave Link  103 at Tue Jan 27 17:49:20 2026, MaxMem=  4294967296 cpu:               0.3 elap:               0.0
 (Enter /root/g16/l202.exe)
                          Input orientation:                          
 ---------------------------------------------------------------------
 Center     Atomic      Atomic             Coordinates (Angstroms)
 Number     Number       Type             X           Y           Z
 ---------------------------------------------------------------------
      1          8           0        2.741310   -0.459319   -1.595127
      2          6           0        1.947226   -0.505528   -0.657984
      3          6           0        0.742487   -1.313144   -0.637585
      4          6           0       -0.156586   -1.189858    0.374915
      5          6           0       -1.488292   -1.880251    0.395560
      6          6           0       -2.546970   -1.083683   -0.382768
      7          6           0       -2.561652    0.392816    0.030995
      8          6           0       -1.308158    1.049852   -0.515636
      9          8           0       -1.104863    1.105178   -1.712131
     10          6           0       -0.336932    1.569218    0.468949
     11          6           0        0.902356    1.996287    0.015962
     12          6           0        2.145930    0.273398    0.565912
     13          8           0        1.433046    0.043022    1.666934
     14          6           0        0.174985   -0.324273    1.462386
     15          1           0        0.583482   -1.992782   -1.460112
     16          1           0       -1.392521   -2.868456   -0.055470
     17          1           0       -1.818611   -1.999701    1.428705
     18          1           0       -3.525473   -1.531232   -0.206427
     19          1           0       -2.332010   -1.134154   -1.451538
     20          1           0       -2.630795    0.494102    1.112769
     21          1           0       -3.424394    0.876743   -0.430899
     22          1           0       -0.724126    1.916078    1.415553
     23          1           0        1.106260    1.955833   -1.041471
     24          1           0        1.497745    2.673245    0.604556
     25          1           0        3.132817    0.670495    0.764849
     26          1           0       -0.400290   -0.354303    2.378321
 ---------------------------------------------------------------------
                    Distance matrix (angstroms):
                    1          2          3          4          5
     1  O    0.000000
     2  C    1.229203   0.000000
     3  C    2.375120   1.450537   0.000000
     4  C    3.579462   2.441560   1.359665   0.000000
     5  C    4.885838   3.847415   2.522970   1.500170   0.000000
     6  C    5.461277   4.539582   3.307281   2.509839   1.536592
     7  C    5.611756   4.648838   3.778178   2.899565   2.540048
     8  C    4.454334   3.610679   3.131097   2.671236   3.073797
     9  O    4.153840   3.608441   3.227325   3.243791   3.674529
    10  C    4.225038   3.285107   3.270715   2.766562   3.637287
    11  C    3.465164   2.793750   3.377131   3.376644   4.570212
    12  C    2.358271   1.464286   2.436222   2.734809   4.227860
    13  O    3.550344   2.443468   2.761679   2.390865   3.721504
    14  C    3.994076   2.769415   2.389520   1.428905   2.515090
    15  H    2.650652   2.171435   1.078768   2.135348   2.783600
    16  H    5.026235   4.135258   2.704831   2.128487   1.090481
    17  H    5.684119   4.557231   3.361568   2.128062   1.091223
    18  H    6.507691   5.586269   4.295223   3.435680   2.152744
    19  H    5.120018   4.397358   3.185449   2.841039   2.163398
    20  H    6.091077   5.009302   4.208195   3.082508   2.730797
    21  H    6.415325   5.551265   4.711817   3.949525   3.468796
    22  H    5.168747   4.159309   4.098073   3.324434   4.004554
    23  H    2.968650   2.629179   3.313859   3.673731   4.848948
    24  H    4.024676   3.449731   4.243186   4.208695   5.449260
    25  H    2.645608   2.193880   3.408126   3.799096   5.291250
    26  H    5.066455   3.840944   3.364671   2.184303   2.728298
                    6          7          8          9         10
     6  C    0.000000
     7  C    1.533448   0.000000
     8  C    2.470684   1.517151   0.000000
     9  O    2.939045   2.380794   1.214903   0.000000
    10  C    3.556343   2.554429   1.477305   2.358423   0.000000
    11  C    4.641449   3.817158   2.462663   2.794514   1.386874
    12  C    4.976442   4.739380   3.701804   4.055735   2.802348
    13  O    4.616413   4.330850   3.645754   4.357434   2.626265
    14  C    3.374957   3.170533   2.828516   3.709299   2.198701
    15  H    3.433199   4.219756   3.705126   3.537142   4.154068
    16  H    2.150649   3.465579   3.946138   4.314746   4.591539
    17  H    2.156625   2.868770   3.652505   4.473763   3.981669
    18  H    1.090351   2.165012   3.416736   3.882931   4.498412
    19  H    1.091341   2.140625   2.587290   2.566789   3.869991
    20  H    2.175561   1.088704   2.170237   3.268324   2.613845
    21  H    2.148362   1.091721   2.124994   2.659692   3.289630
    22  H    3.944019   2.759318   2.195662   3.253448   1.079949
    23  H    4.797774   4.128775   2.631867   2.462207   2.124534
    24  H    5.607944   4.691273   3.429771   3.820921   2.145532
    25  H    6.054266   5.748271   4.637436   4.927707   3.596445
    26  H    3.572652   3.277135   3.342284   4.399807   2.711024
                   11         12         13         14         15
    11  C    0.000000
    12  C    2.194827   0.000000
    13  O    2.612008   1.331738   0.000000
    14  C    2.829524   2.246219   1.326447   0.000000
    15  H    4.265342   3.417835   3.826836   3.389954   0.000000
    16  H    5.379339   4.772630   4.407631   3.351690   2.577676
    17  H    5.036608   4.650696   3.847433   2.604346   3.757042
    18  H    5.665555   6.001501   5.529436   4.234982   4.320679
    19  H    4.734378   5.109135   5.028544   3.928344   3.039310
    20  H    3.992831   4.812989   4.126181   2.943530   4.809977
    21  H    4.491528   5.690884   5.356371   4.240577   5.035526
    22  H    2.147261   3.414309   2.867912   2.414490   5.025781
    23  H    1.077673   2.548564   3.331830   3.512187   4.005011
    24  H    1.076663   2.486142   2.837412   3.386840   5.183680
    25  H    2.700650   1.082223   2.024031   3.197638   4.306112
    26  H    3.578114   3.187801   2.006255   1.082026   4.287889
                   16         17         18         19         20
    16  H    0.000000
    17  H    1.771740   0.000000
    18  H    2.521992   2.409667   0.000000
    19  H    2.416495   3.050992   1.769838   0.000000
    20  H    3.768939   2.641687   2.577344   3.052239   0.000000
    21  H    4.277379   3.782935   2.420526   2.505737   1.777393
    22  H    5.049992   4.065881   4.728880   4.484353   2.397724
    23  H    5.521763   5.504806   5.857463   4.640892   4.554447
    24  H    6.284881   5.789116   6.600609   5.778481   4.695933
    25  H    5.803083   5.664564   7.079816   6.167127   5.776797
    26  H    3.637145   2.370810   4.222896   4.359763   2.701215
                   21         22         23         24         25
    21  H    0.000000
    22  H    3.432353   0.000000
    23  H    4.697240   3.064125   0.000000
    24  H    5.341071   2.483492   1.837756   0.000000
    25  H    6.668535   4.104984   3.003634   2.590398   0.000000
    26  H    4.307249   2.487251   4.393336   3.989340   4.017007
                   26
    26  H    0.000000
 Stoichiometry    C11H12O3
 Framework group  C1[X(C11H12O3)]
 Deg. of freedom    72
 Full point group                 C1      NOp   1
 Largest Abelian subgroup         C1      NOp   1
 Largest concise Abelian subgroup C1      NOp   1
                         Standard orientation:                         
 ---------------------------------------------------------------------
 Center     Atomic      Atomic             Coordinates (Angstroms)
 Number     Number       Type             X           Y           Z
 ---------------------------------------------------------------------
      1          8           0        2.671522   -0.593767   -1.635859
      2          6           0        1.883664   -0.634133   -0.693209
      3          6           0        0.601028   -1.311046   -0.719475
      4          6           0       -0.272921   -1.178700    0.313669
      5          6           0       -1.669522   -1.726246    0.299147
      6          6           0       -2.644311   -0.762593   -0.395312
      7          6           0       -2.501081    0.668344    0.137009
      8          6           0       -1.189503    1.234245   -0.374134
      9          8           0       -0.990048    1.366412   -1.565243
     10          6           0       -0.162169    1.567025    0.633968
     11          6           0        1.111825    1.898759    0.197722
     12          6           0        2.171689    0.016537    0.586558
     13          8           0        1.446428   -0.228299    1.676319
     14          6           0        0.155355   -0.444723    1.462420
     15          1           0        0.365754   -1.900463   -1.591814
     16          1           0       -1.681155   -2.678565   -0.231987
     17          1           0       -2.003185   -1.895322    1.324256
     18          1           0       -3.663084   -1.118973   -0.240517
     19          1           0       -2.443446   -0.747013   -1.467895
     20          1           0       -2.551514    0.686900    1.224386
     21          1           0       -3.311565    1.275705   -0.270524
     22          1           0       -0.504092    1.873176    1.611542
     23          1           0        1.302828    1.924485   -0.862578
     24          1           0        1.779118    2.459403    0.829863
     25          1           0        3.196177    0.291155    0.801535
     26          1           0       -0.413362   -0.490057    2.381815
 ---------------------------------------------------------------------
 Rotational constants (GHZ):           1.1231756           0.6733189           0.6282216
 Leave Link  202 at Tue Jan 27 17:49:20 2026, MaxMem=  4294967296 cpu:               0.3 elap:               0.0
 (Enter /root/g16/l301.exe)
 Standard basis: STO-3G (5D, 7F)
 Ernie: Thresh=  0.10000D-02 Tol=  0.10000D-05 Strict=F.
 There are    82 symmetry adapted cartesian basis functions of A   symmetry.
 There are    82 symmetry adapted basis functions of A   symmetry.
    82 basis functions,   246 primitive gaussians,    82 cartesian basis functions
    51 alpha electrons       51 beta electrons
       nuclear repulsion energy       943.8137753687 Hartrees.
 IExCor=    0 DFT=F Ex=HF Corr=None ExCW=0 ScaHFX=  1.000000
 ScaDFX=  1.000000  1.000000  1.000000  1.000000 ScalE2=  1.000000  1.000000
 IRadAn=      5 IRanWt=     -1 IRanGd=            0 ICorTp=0 IEmpDi=  4
 NAtoms=   26 NActive=   26 NUniq=   26 SFac= 1.00D+00 NAtFMM=   60 NAOKFM=F Big=F
 Integral buffers will be    131072 words long.
 Raffenetti 1 integral format.
 Two-electron integral symmetry is turned on.
 Leave Link  301 at Tue Jan 27 17:49:20 2026, MaxMem=  4294967296 cpu:               0.3 elap:               0.0
 (Enter /root/g16/l302.exe)
 NPDir=0 NMtPBC=     1 NCelOv=     1 NCel=       1 NClECP=     1 NCelD=      1
         NCelK=      1 NCelE2=     1 NClLst=     1 CellRange=     0.0.
 One-electron integrals computed using PRISM.
 One-electron integral symmetry used in STVInt
 NBasis=    82 RedAO= T EigKep=  1.85D-01  NBF=    82
 NBsUse=    82 1.00D-06 EigRej= -1.00D+00 NBFU=    82
 Leave Link  302 at Tue Jan 27 17:49:20 2026, MaxMem=  4294967296 cpu:               0.8 elap:               0.1
 (Enter /root/g16/l303.exe)
 DipDrv:  MaxL=1.
 Leave Link  303 at Tue Jan 27 17:49:20 2026, MaxMem=  4294967296 cpu:               0.3 elap:               0.0
 (Enter /root/g16/l401.exe)
 ExpMin= 1.69D-01 ExpMax= 1.31D+02 ExpMxC= 1.31D+02 IAcc=3 IRadAn=         5 AccDes= 0.00D+00
 Harris functional with IExCor=  205 and IRadAn=       5 diagonalized for initial guess.
 HarFok:  IExCor=  205 AccDes= 0.00D+00 IRadAn=         5 IDoV= 1 UseB2=F ITyADJ=14
 ICtDFT=  3500011 ScaDFX=  1.000000  1.000000  1.000000  1.000000
 FoFCou: FMM=F IPFlag=           0 FMFlag=      100000 FMFlg1=           0
         NFxFlg=           0 DoJE=T BraDBF=F KetDBF=T FulRan=T
         wScrn=  0.000000 ICntrl=       500 IOpCl=  0 I1Cent=   200000004 NGrid=           0
         NMat0=    1 NMatS0=      1 NMatT0=    0 NMatD0=    1 NMtDS0=    0 NMtDT0=    0
 Petite list used in FoFCou.
 Harris En= -640.425325871672    
 JPrj=0 DoOrth=F DoCkMO=F.
 Leave Link  401 at Tue Jan 27 17:49:20 2026, MaxMem=  4294967296 cpu:               2.4 elap:               0.2
 (Enter /root/g16/l502.exe)
 Integral symmetry usage will be decided dynamically.
 Closed shell SCF:
 Using DIIS extrapolation, IDIIS=  1040.
 NGot=  4294967296 LenX=  4294950944 LenY=  4294943779
 Requested convergence on RMS density matrix=1.00D-08 within 128 cycles.
 Requested convergence on MAX density matrix=1.00D-06.
 Requested convergence on             energy=1.00D-06.
 No special actions if energy rises.
 Fock matrices will be formed incrementally for  20 cycles.
 Integral accuracy reduced to 1.0D-05 until final iterations.

 Cycle   1  Pass 0  IDiag  1:
 FoFJK:  IHMeth= 1 ICntrl=       0 DoSepK=F KAlg= 0 I1Cent=           0 FoldK=F
 IRaf= 910000000 NMat=       1 IRICut=       1 DoRegI=T DoRafI=F ISym2E= 0 IDoP0=0 IntGTp=1.
 FoFCou: FMM=F IPFlag=           0 FMFlag=      100000 FMFlg1=           0
         NFxFlg=           0 DoJE=F BraDBF=F KetDBF=F FulRan=T
         wScrn=  0.000000 ICntrl=         0 IOpCl=  0 I1Cent=           0 NGrid=           0
         NMat0=    1 NMatS0=      1 NMatT0=    0 NMatD0=    1 NMtDS0=    0 NMtDT0=    0
 Symmetry not used in FoFCou.
 E= -639.547479901857    
 DIIS: error= 4.04D-02 at cycle   1 NSaved=   1.
 NSaved= 1 IEnMin= 1 EnMin= -639.547479901857     IErMin= 1 ErrMin= 4.04D-02
 ErrMax= 4.04D-02  0.00D+00 EMaxC= 1.00D-01 BMatC= 2.51D-01 BMatP= 2.51D-01
 IDIUse=3 WtCom= 5.96D-01 WtEn= 4.04D-01
 Coeff-Com:  0.100D+01
 Coeff-En:   0.100D+01
 Coeff:      0.100D+01
 Gap=     0.410 Goal=   None    Shift=    0.000
 GapD=    0.410 DampG=2.000 DampE=0.500 DampFc=1.0000 IDamp=-1.
 RMSDP=8.81D-03 MaxDP=1.32D-01              OVMax= 0.00D+00

 Cycle   2  Pass 0  IDiag  1:
 RMSU=  8.80D-03    CP:  9.96D-01
 E= -639.757462961375     Delta-E=       -0.209983059518 Rises=F Damp=F
 DIIS: error= 1.31D-02 at cycle   2 NSaved=   2.
 NSaved= 2 IEnMin= 2 EnMin= -639.757462961375     IErMin= 2 ErrMin= 1.31D-02
 ErrMax= 1.31D-02  0.00D+00 EMaxC= 1.00D-01 BMatC= 2.17D-02 BMatP= 2.51D-01
 IDIUse=3 WtCom= 8.69D-01 WtEn= 1.31D-01
 Coeff-Com:  0.150D+00 0.850D+00
 Coeff-En:   0.000D+00 0.100D+01
 Coeff:      0.130D+00 0.870D+00
 Gap=     0.412 Goal=   None    Shift=    0.000
 RMSDP=3.08D-03 MaxDP=4.42D-02 DE=-2.10D-01 OVMax= 0.00D+00

 Cycle   3  Pass 0  IDiag  1:
 RMSU=  2.26D-03    CP:  9.97D-01  7.63D-01
 E= -639.783313610864     Delta-E=       -0.025850649489 Rises=F Damp=F
 DIIS: error= 4.32D-03 at cycle   3 NSaved=   3.
 NSaved= 3 IEnMin= 3 EnMin= -639.783313610864     IErMin= 3 ErrMin= 4.32D-03
 ErrMax= 4.32D-03  0.00D+00 EMaxC= 1.00D-01 BMatC= 1.92D-03 BMatP= 2.17D-02
 IDIUse=3 WtCom= 9.57D-01 WtEn= 4.32D-02
 Coeff-Com: -0.188D-01 0.177D+00 0.842D+00
 Coeff-En:   0.000D+00 0.000D+00 0.100D+01
 Coeff:     -0.180D-01 0.169D+00 0.849D+00
 Gap=     0.386 Goal=   None    Shift=    0.000
 RMSDP=9.81D-04 MaxDP=1.97D-02 DE=-2.59D-02 OVMax= 0.00D+00

 Cycle   4  Pass 0  IDiag  1:
 RMSU=  6.55D-04    CP:  9.97D-01  8.43D-01  9.12D-01
 E= -639.786642344434     Delta-E=       -0.003328733571 Rises=F Damp=F
 DIIS: error= 1.15D-03 at cycle   4 NSaved=   4.
 NSaved= 4 IEnMin= 4 EnMin= -639.786642344434     IErMin= 4 ErrMin= 1.15D-03
 ErrMax= 1.15D-03  0.00D+00 EMaxC= 1.00D-01 BMatC= 2.19D-04 BMatP= 1.92D-03
 IDIUse=3 WtCom= 9.89D-01 WtEn= 1.15D-02
 Coeff-Com: -0.895D-02-0.150D-01 0.190D+00 0.834D+00
 Coeff-En:   0.000D+00 0.000D+00 0.000D+00 0.100D+01
 Coeff:     -0.884D-02-0.148D-01 0.188D+00 0.836D+00
 Gap=     0.387 Goal=   None    Shift=    0.000
 RMSDP=2.94D-04 MaxDP=3.60D-03 DE=-3.33D-03 OVMax= 0.00D+00

 Cycle   5  Pass 0  IDiag  1:
 RMSU=  2.15D-04    CP:  9.96D-01  8.46D-01  9.99D-01  1.04D+00
 E= -639.786999953312     Delta-E=       -0.000357608878 Rises=F Damp=F
 DIIS: error= 5.02D-04 at cycle   5 NSaved=   5.
 NSaved= 5 IEnMin= 5 EnMin= -639.786999953312     IErMin= 5 ErrMin= 5.02D-04
 ErrMax= 5.02D-04  0.00D+00 EMaxC= 1.00D-01 BMatC= 2.66D-05 BMatP= 2.19D-04
 IDIUse=3 WtCom= 9.95D-01 WtEn= 5.02D-03
 Coeff-Com:  0.259D-02-0.355D-01-0.967D-01-0.165D-01 0.115D+01
 Coeff-En:   0.000D+00 0.000D+00 0.000D+00 0.000D+00 0.100D+01
 Coeff:      0.258D-02-0.353D-01-0.962D-01-0.165D-01 0.115D+01
 Gap=     0.387 Goal=   None    Shift=    0.000
 RMSDP=1.97D-04 MaxDP=3.38D-03 DE=-3.58D-04 OVMax= 0.00D+00

 Cycle   6  Pass 0  IDiag  1:
 RMSU=  8.62D-05    CP:  9.96D-01  8.49D-01  1.04D+00  1.24D+00  1.27D+00
 E= -639.787097391132     Delta-E=       -0.000097437820 Rises=F Damp=F
 DIIS: error= 3.18D-04 at cycle   6 NSaved=   6.
 NSaved= 6 IEnMin= 6 EnMin= -639.787097391132     IErMin= 6 ErrMin= 3.18D-04
 ErrMax= 3.18D-04  0.00D+00 EMaxC= 1.00D-01 BMatC= 5.89D-06 BMatP= 2.66D-05
 IDIUse=3 WtCom= 9.97D-01 WtEn= 3.18D-03
 Coeff-Com:  0.130D-02-0.169D-02-0.166D-01-0.152D+00 0.153D+00 0.102D+01
 Coeff-En:   0.000D+00 0.000D+00 0.000D+00 0.000D+00 0.000D+00 0.100D+01
 Coeff:      0.130D-02-0.169D-02-0.166D-01-0.152D+00 0.152D+00 0.102D+01
 Gap=     0.387 Goal=   None    Shift=    0.000
 RMSDP=7.69D-05 MaxDP=1.15D-03 DE=-9.74D-05 OVMax= 0.00D+00

 Cycle   7  Pass 0  IDiag  1:
 RMSU=  3.17D-05    CP:  9.96D-01  8.50D-01  1.06D+00  1.29D+00  1.50D+00
                    CP:  1.26D+00
 E= -639.787112776600     Delta-E=       -0.000015385468 Rises=F Damp=F
 DIIS: error= 9.36D-05 at cycle   7 NSaved=   7.
 NSaved= 7 IEnMin= 7 EnMin= -639.787112776600     IErMin= 7 ErrMin= 9.36D-05
 ErrMax= 9.36D-05  0.00D+00 EMaxC= 1.00D-01 BMatC= 8.67D-07 BMatP= 5.89D-06
 IDIUse=1 WtCom= 1.00D+00 WtEn= 0.00D+00
 Coeff-Com: -0.464D-03 0.630D-02 0.244D-01-0.170D-01-0.171D+00-0.424D-01
 Coeff-Com:  0.120D+01
 Coeff:     -0.464D-03 0.630D-02 0.244D-01-0.170D-01-0.171D+00-0.424D-01
 Coeff:      0.120D+01
 Gap=     0.388 Goal=   None    Shift=    0.000
 RMSDP=3.79D-05 MaxDP=5.78D-04 DE=-1.54D-05 OVMax= 0.00D+00

 Cycle   8  Pass 0  IDiag  1:
 RMSU=  1.29D-05    CP:  9.96D-01  8.50D-01  1.06D+00  1.31D+00  1.59D+00
                    CP:  1.54D+00  1.37D+00
 E= -639.787115446504     Delta-E=       -0.000002669904 Rises=F Damp=F
 DIIS: error= 3.13D-05 at cycle   8 NSaved=   8.
 NSaved= 8 IEnMin= 8 EnMin= -639.787115446504     IErMin= 8 ErrMin= 3.13D-05
 ErrMax= 3.13D-05  0.00D+00 EMaxC= 1.00D-01 BMatC= 1.05D-07 BMatP= 8.67D-07
 IDIUse=1 WtCom= 1.00D+00 WtEn= 0.00D+00
 Coeff-Com: -0.309D-03 0.190D-02 0.991D-02 0.135D-01-0.650D-01-0.158D+00
 Coeff-Com:  0.296D+00 0.902D+00
 Coeff:     -0.309D-03 0.190D-02 0.991D-02 0.135D-01-0.650D-01-0.158D+00
 Coeff:      0.296D+00 0.902D+00
 Gap=     0.388 Goal=   None    Shift=    0.000
 RMSDP=1.22D-05 MaxDP=2.51D-04 DE=-2.67D-06 OVMax= 0.00D+00

 Cycle   9  Pass 0  IDiag  1:
 RMSU=  4.18D-06    CP:  9.96D-01  8.50D-01  1.06D+00  1.31D+00  1.61D+00
                    CP:  1.62D+00  1.60D+00  1.02D+00
 E= -639.787115720431     Delta-E=       -0.000000273926 Rises=F Damp=F
 DIIS: error= 8.00D-06 at cycle   9 NSaved=   9.
 NSaved= 9 IEnMin= 9 EnMin= -639.787115720431     IErMin= 9 ErrMin= 8.00D-06
 ErrMax= 8.00D-06  0.00D+00 EMaxC= 1.00D-01 BMatC= 8.66D-09 BMatP= 1.05D-07
 IDIUse=1 WtCom= 1.00D+00 WtEn= 0.00D+00
 Coeff-Com:  0.113D-03-0.102D-02-0.424D-02-0.222D-02 0.297D-01 0.500D-01
 Coeff-Com: -0.215D+00-0.135D+00 0.128D+01
 Coeff:      0.113D-03-0.102D-02-0.424D-02-0.222D-02 0.297D-01 0.500D-01
 Coeff:     -0.215D+00-0.135D+00 0.128D+01
 Gap=     0.388 Goal=   None    Shift=    0.000
 RMSDP=4.10D-06 MaxDP=6.42D-05 DE=-2.74D-07 OVMax= 0.00D+00

 Initial convergence to 1.0D-05 achieved.  Increase integral accuracy.
 Cycle  10  Pass 1  IDiag  1:
 E= -639.787125984307     Delta-E=       -0.000010263876 Rises=F Damp=F
 DIIS: error= 3.75D-06 at cycle   1 NSaved=   1.
 NSaved= 1 IEnMin= 1 EnMin= -639.787125984307     IErMin= 1 ErrMin= 3.75D-06
 ErrMax= 3.75D-06  0.00D+00 EMaxC= 1.00D-01 BMatC= 1.45D-09 BMatP= 1.45D-09
 IDIUse=1 WtCom= 1.00D+00 WtEn= 0.00D+00
 Coeff-Com:  0.100D+01
 Coeff:      0.100D+01
 Gap=     0.388 Goal=   None    Shift=    0.000
 RMSDP=4.10D-06 MaxDP=6.42D-05 DE=-1.03D-05 OVMax= 0.00D+00

 Cycle  11  Pass 1  IDiag  1:
 RMSU=  9.23D-07    CP:  1.00D+00
 E= -639.787125987528     Delta-E=       -0.000000003221 Rises=F Damp=F
 DIIS: error= 1.79D-06 at cycle   2 NSaved=   2.
 NSaved= 2 IEnMin= 2 EnMin= -639.787125987528     IErMin= 2 ErrMin= 1.79D-06
 ErrMax= 1.79D-06  0.00D+00 EMaxC= 1.00D-01 BMatC= 2.56D-10 BMatP= 1.45D-09
 IDIUse=1 WtCom= 1.00D+00 WtEn= 0.00D+00
 Coeff-Com: -0.129D-01 0.101D+01
 Coeff:     -0.129D-01 0.101D+01
 Gap=     0.388 Goal=   None    Shift=    0.000
 RMSDP=4.95D-07 MaxDP=1.03D-05 DE=-3.22D-09 OVMax= 0.00D+00

 Cycle  12  Pass 1  IDiag  1:
 RMSU=  3.86D-07    CP:  1.00D+00  1.34D+00
 E= -639.787125988527     Delta-E=       -0.000000000998 Rises=F Damp=F
 DIIS: error= 1.25D-06 at cycle   3 NSaved=   3.
 NSaved= 3 IEnMin= 3 EnMin= -639.787125988527     IErMin= 3 ErrMin= 1.25D-06
 ErrMax= 1.25D-06  0.00D+00 EMaxC= 1.00D-01 BMatC= 1.16D-10 BMatP= 2.56D-10
 IDIUse=1 WtCom= 1.00D+00 WtEn= 0.00D+00
 Coeff-Com: -0.223D+00 0.596D-01 0.116D+01
 Coeff:     -0.223D+00 0.596D-01 0.116D+01
 Gap=     0.388 Goal=   None    Shift=    0.000
 RMSDP=4.45D-07 MaxDP=8.70D-06 DE=-9.98D-10 OVMax= 0.00D+00

 Cycle  13  Pass 1  IDiag  1:
 RMSU=  1.46D-07    CP:  1.00D+00  1.76D+00  1.42D+00
 E= -639.787125989037     Delta-E=       -0.000000000511 Rises=F Damp=F
 DIIS: error= 4.63D-07 at cycle   4 NSaved=   4.
 NSaved= 4 IEnMin= 4 EnMin= -639.787125989037     IErMin= 4 ErrMin= 4.63D-07
 ErrMax= 4.63D-07  0.00D+00 EMaxC= 1.00D-01 BMatC= 1.75D-11 BMatP= 1.16D-10
 IDIUse=1 WtCom= 1.00D+00 WtEn= 0.00D+00
 Coeff-Com:  0.297D-01-0.242D+00-0.235D+00 0.145D+01
 Coeff:      0.297D-01-0.242D+00-0.235D+00 0.145D+01
 Gap=     0.388 Goal=   None    Shift=    0.000
 RMSDP=3.04D-07 MaxDP=6.85D-06 DE=-5.11D-10 OVMax= 0.00D+00

 Cycle  14  Pass 1  IDiag  1:
 RMSU=  5.52D-08    CP:  1.00D+00  2.00D+00  1.87D+00  1.69D+00
 E= -639.787125989172     Delta-E=       -0.000000000135 Rises=F Damp=F
 DIIS: error= 1.41D-07 at cycle   5 NSaved=   5.
 NSaved= 5 IEnMin= 5 EnMin= -639.787125989172     IErMin= 5 ErrMin= 1.41D-07
 ErrMax= 1.41D-07  0.00D+00 EMaxC= 1.00D-01 BMatC= 1.98D-12 BMatP= 1.75D-11
 IDIUse=1 WtCom= 1.00D+00 WtEn= 0.00D+00
 Coeff-Com:  0.147D-01-0.289D-01-0.799D-01 0.875D-01 0.101D+01
 Coeff:      0.147D-01-0.289D-01-0.799D-01 0.875D-01 0.101D+01
 Gap=     0.388 Goal=   None    Shift=    0.000
 RMSDP=6.27D-08 MaxDP=1.62D-06 DE=-1.35D-10 OVMax= 0.00D+00

 Cycle  15  Pass 1  IDiag  1:
 RMSU=  2.90D-08    CP:  1.00D+00  2.03D+00  1.94D+00  1.89D+00  1.38D+00
 E= -639.787125989186     Delta-E=       -0.000000000013 Rises=F Damp=F
 DIIS: error= 9.71D-08 at cycle   6 NSaved=   6.
 NSaved= 6 IEnMin= 6 EnMin= -639.787125989186     IErMin= 6 ErrMin= 9.71D-08
 ErrMax= 9.71D-08  0.00D+00 EMaxC= 1.00D-01 BMatC= 8.54D-13 BMatP= 1.98D-12
 IDIUse=1 WtCom= 1.00D+00 WtEn= 0.00D+00
 Coeff-Com: -0.135D-01 0.101D+00 0.129D+00-0.653D+00 0.936D-01 0.134D+01
 Coeff:     -0.135D-01 0.101D+00 0.129D+00-0.653D+00 0.936D-01 0.134D+01
 Gap=     0.388 Goal=   None    Shift=    0.000
 RMSDP=5.27D-08 MaxDP=1.11D-06 DE=-1.34D-11 OVMax= 0.00D+00

 Cycle  16  Pass 1  IDiag  1:
 RMSU=  1.15D-08    CP:  1.00D+00  2.04D+00  1.98D+00  2.05D+00  2.08D+00
                    CP:  1.55D+00
 E= -639.787125989186     Delta-E=       -0.000000000001 Rises=F Damp=F
 DIIS: error= 2.83D-08 at cycle   7 NSaved=   7.
 NSaved= 7 IEnMin= 7 EnMin= -639.787125989186     IErMin= 7 ErrMin= 2.83D-08
 ErrMax= 2.83D-08  0.00D+00 EMaxC= 1.00D-01 BMatC= 8.68D-14 BMatP= 8.54D-13
 IDIUse=1 WtCom= 1.00D+00 WtEn= 0.00D+00
 Coeff-Com: -0.322D-02 0.777D-02 0.248D-01-0.599D-01-0.137D+00 0.570D-01
 Coeff-Com:  0.111D+01
 Coeff:     -0.322D-02 0.777D-02 0.248D-01-0.599D-01-0.137D+00 0.570D-01
 Coeff:      0.111D+01
 Gap=     0.388 Goal=   None    Shift=    0.000
 RMSDP=1.78D-08 MaxDP=4.05D-07 DE=-6.82D-13 OVMax= 0.00D+00

 Cycle  17  Pass 1  IDiag  1:
 RMSU=  5.24D-09    CP:  1.00D+00  2.05D+00  1.99D+00  2.09D+00  2.28D+00
                    CP:  1.85D+00  1.33D+00
 E= -639.787125989188     Delta-E=       -0.000000000002 Rises=F Damp=F
 DIIS: error= 1.40D-08 at cycle   8 NSaved=   8.
 NSaved= 8 IEnMin= 8 EnMin= -639.787125989188     IErMin= 8 ErrMin= 1.40D-08
 ErrMax= 1.40D-08  0.00D+00 EMaxC= 1.00D-01 BMatC= 1.53D-14 BMatP= 8.68D-14
 IDIUse=1 WtCom= 1.00D+00 WtEn= 0.00D+00
 Coeff-Com:  0.258D-02-0.194D-01-0.219D-01 0.121D+00-0.142D-01-0.240D+00
 Coeff-Com: -0.739D-01 0.125D+01
 Coeff:      0.258D-02-0.194D-01-0.219D-01 0.121D+00-0.142D-01-0.240D+00
 Coeff:     -0.739D-01 0.125D+01
 Gap=     0.388 Goal=   None    Shift=    0.000
 RMSDP=7.19D-09 MaxDP=1.26D-07 DE=-2.05D-12 OVMax= 0.00D+00

 SCF Done:  E(RHF) =  -639.787125989     A.U. after   17 cycles
            NFock= 17  Conv=0.72D-08     -V/T= 2.0085
 KE= 6.344161282728D+02 PE=-3.386864624529D+03 EE= 1.168847594898D+03
 Leave Link  502 at Tue Jan 27 17:49:21 2026, MaxMem=  4294967296 cpu:               8.2 elap:               0.5
 (Enter /root/g16/l801.exe)
 Range of M.O.s used for correlation:     1    82
 NBasis=    82 NAE=    51 NBE=    51 NFC=     0 NFV=     0
 NROrb=     82 NOA=    51 NOB=    51 NVA=    31 NVB=    31
 Leave Link  801 at Tue Jan 27 17:49:21 2026, MaxMem=  4294967296 cpu:               0.3 elap:               0.0
 (Enter /root/g16/l1101.exe)
 Using compressed storage, NAtomX=    26.
 Will process     27 centers per pass.
 Leave Link 1101 at Tue Jan 27 17:49:21 2026, MaxMem=  4294967296 cpu:               0.7 elap:               0.0
 (Enter /root/g16/l1102.exe)
 Symmetrizing basis deriv contribution to polar:
 IMax=3 JMax=2 DiffMx= 0.00D+00
 Leave Link 1102 at Tue Jan 27 17:49:21 2026, MaxMem=  4294967296 cpu:               0.3 elap:               0.0
 (Enter /root/g16/l1110.exe)
 Forming Gx(P) for the SCF density, NAtomX=    26.
 Integral derivatives from FoFJK, PRISM(SPDF).
 Do as many integral derivatives as possible in FoFJK.
 G2DrvN: MDV=    4294965288.
 G2DrvN: will do    27 centers at a time, making    1 passes.
 Calling FoFCou, ICntrl=  3107 FMM=F I1Cent=   0 AccDes= 0.00D+00.
 FoFJK:  IHMeth= 1 ICntrl=    3107 DoSepK=F KAlg= 0 I1Cent=           0 FoldK=F
 IRaf=         0 NMat=       1 IRICut=       1 DoRegI=T DoRafI=F ISym2E= 0 IDoP0=0 IntGTp=1.
 FoFCou: FMM=F IPFlag=           0 FMFlag=      100000 FMFlg1=           0
         NFxFlg=           0 DoJE=F BraDBF=F KetDBF=F FulRan=T
         wScrn=  0.000000 ICntrl=      3107 IOpCl=  0 I1Cent=           0 NGrid=           0
         NMat0=    1 NMatS0=      1 NMatT0=    0 NMatD0=    1 NMtDS0=    0 NMtDT0=    0
 Symmetry not used in FoFCou.
 End of G2Drv F.D. properties file   721 does not exist.
 End of G2Drv F.D. properties file   722 does not exist.
 End of G2Drv F.D. properties file   788 does not exist.
 Leave Link 1110 at Tue Jan 27 17:49:21 2026, MaxMem=  4294967296 cpu:               2.2 elap:               0.1
 (Enter /root/g16/l1002.exe)
 Minotr:  Closed shell wavefunction.
          IDoAtm=11111111111111111111111111
          Direct CPHF calculation.
          Differentiating once with respect to nuclear coordinates.
          Requested convergence is 1.0D-08 RMS, and 1.0D-07 maximum.
          Secondary convergence is 1.0D-12 RMS, and 1.0D-12 maximum.
          NewPWx=T KeepS1=F KeepF1=F KeepIn=T MapXYZ=F SortEE=F KeepMc=T.
 Keep R1 ints in memory in canonical form, NReq=9165855.
 FoFCou: FMM=F IPFlag=           0 FMFlag=           0 FMFlg1=           0
         NFxFlg=           0 DoJE=F BraDBF=F KetDBF=F FulRan=T
         wScrn=  0.000000 ICntrl=       600 IOpCl=  0 I1Cent=           0 NGrid=           0
         NMat0=    1 NMatS0=   3403 NMatT0=    0 NMatD0=    1 NMtDS0=    0 NMtDT0=    0
 Symmetry not used in FoFCou.
 Two-electron integral symmetry not used.
          MDV=    4294967296 using IRadAn=       1.
          Solving linear equations simultaneously, MaxMat=       0.
          There are    81 degrees of freedom in the 1st order CPHF.  IDoFFX=6 NUNeed=     0.
     75 vectors produced by pass  0 Test12= 1.95D-15 1.23D-09 XBig12= 5.58D-02 8.77D-02.
 AX will form    75 AO Fock derivatives at one time.
     75 vectors produced by pass  1 Test12= 1.95D-15 1.23D-09 XBig12= 5.91D-04 7.41D-03.
     75 vectors produced by pass  2 Test12= 1.95D-15 1.23D-09 XBig12= 8.49D-06 5.23D-04.
     75 vectors produced by pass  3 Test12= 1.95D-15 1.23D-09 XBig12= 4.74D-08 4.28D-05.
     75 vectors produced by pass  4 Test12= 1.95D-15 1.23D-09 XBig12= 2.87D-10 3.19D-06.
     75 vectors produced by pass  5 Test12= 1.95D-15 1.23D-09 XBig12= 8.79D-13 2.01D-07.
     29 vectors produced by pass  6 Test12= 1.95D-15 1.23D-09 XBig12= 2.36D-15 8.26D-09.
 InvSVY:  IOpt=1 It=  1 EMax= 1.67D-16
 Solved reduced A of dimension   479 with    81 vectors.
 End of Minotr F.D. properties file   721 does not exist.
 End of Minotr F.D. properties file   722 does not exist.
 End of Minotr F.D. properties file   788 does not exist.
 Leave Link 1002 at Tue Jan 27 17:49:21 2026, MaxMem=  4294967296 cpu:               4.0 elap:               0.3
 (Enter /root/g16/l601.exe)
 Copying SCF densities to generalized density rwf, IOpCl= 0 IROHF=0.

 **********************************************************************

            Population analysis using the SCF density.

 **********************************************************************

 Orbital symmetries:
       Occupied  (A) (A) (A) (A) (A) (A) (A) (A) (A) (A) (A) (A)
                 (A) (A) (A) (A) (A) (A) (A) (A) (A) (A) (A) (A)
                 (A) (A) (A) (A) (A) (A) (A) (A) (A) (A) (A) (A)
                 (A) (A) (A) (A) (A) (A) (A) (A) (A) (A) (A) (A)
                 (A) (A) (A)
       Virtual   (A) (A) (A) (A) (A) (A) (A) (A) (A) (A) (A) (A)
                 (A) (A) (A) (A) (A) (A) (A) (A) (A) (A) (A) (A)
                 (A) (A) (A) (A) (A) (A) (A)
 The electronic state is 1-A.
 Alpha  occ. eigenvalues --  -20.42129 -20.26040 -20.20699 -11.12354 -11.11638
 Alpha  occ. eigenvalues --  -11.11342 -11.10862 -11.07363 -11.07338 -11.06290
 Alpha  occ. eigenvalues --  -11.05581 -11.03369 -11.03182 -11.03113  -1.44131
 Alpha  occ. eigenvalues --   -1.32323  -1.28449  -1.09840  -1.02603  -1.00619
 Alpha  occ. eigenvalues --   -0.98164  -0.93289  -0.84475  -0.83293  -0.78661
 Alpha  occ. eigenvalues --   -0.75517  -0.69752  -0.67755  -0.65858  -0.63886
 Alpha  occ. eigenvalues --   -0.61788  -0.60281  -0.58530  -0.56642  -0.56305
 Alpha  occ. eigenvalues --   -0.53960  -0.53229  -0.52286  -0.49591  -0.48969
 Alpha  occ. eigenvalues --   -0.47498  -0.46105  -0.46060  -0.45485  -0.43789
 Alpha  occ. eigenvalues --   -0.41931  -0.33762  -0.31807  -0.31026  -0.28072
 Alpha  occ. eigenvalues --   -0.20634
 Alpha virt. eigenvalues --    0.18134   0.23191   0.26999   0.41121   0.44114
 Alpha virt. eigenvalues --    0.55909   0.57915   0.59002   0.61386   0.62773
 Alpha virt. eigenvalues --    0.64003   0.65886   0.67040   0.68036   0.69884
 Alpha virt. eigenvalues --    0.70101   0.70884   0.72049   0.72886   0.73698
 Alpha virt. eigenvalues --    0.76655   0.77336   0.79333   0.82321   0.83855
 Alpha virt. eigenvalues --    0.86941   0.91724   0.94513   1.00555   1.05809
 Alpha virt. eigenvalues --    1.10846
          Condensed to atoms (all electrons):
               1          2          3          4          5          6
     1  O    7.909336   0.422700  -0.026974   0.000299  -0.000001   0.000000
     2  C    0.422700   4.725551   0.404485  -0.026570   0.000759  -0.000009
     3  C   -0.026974   0.404485   4.875173   0.557933  -0.024771  -0.001191
     4  C    0.000299  -0.026570   0.557933   4.811338   0.380084  -0.023869
     5  C   -0.000001   0.000759  -0.024771   0.380084   4.729598   0.356951
     6  C    0.000000  -0.000009  -0.001191  -0.023869   0.356951   4.743535
     7  C    0.000000  -0.000001  -0.000016  -0.003439  -0.023866   0.358702
     8  C    0.000000  -0.000014  -0.000806  -0.003481  -0.001768  -0.024771
     9  O   -0.000000   0.000005   0.000014  -0.000501   0.000020  -0.001690
    10  C    0.000017  -0.001328  -0.003178  -0.009199   0.000225   0.000596
    11  C   -0.000494  -0.006516  -0.000029  -0.001407   0.000006  -0.000009
    12  C   -0.028758   0.386767  -0.041421  -0.007476  -0.000015   0.000002
    13  O    0.000063  -0.014800  -0.002686  -0.018960   0.000262  -0.000001
    14  C    0.000018  -0.009190  -0.035152   0.438859  -0.027084  -0.000130
    15  H   -0.000388  -0.024017   0.392559  -0.024748  -0.003400   0.000044
    16  H   -0.000000   0.000015  -0.003664  -0.022621   0.383947  -0.020837
    17  H    0.000000  -0.000021   0.001241  -0.024455   0.384711  -0.022195
    18  H   -0.000000   0.000000   0.000006   0.001371  -0.022192   0.384141
    19  H    0.000000  -0.000004   0.000196  -0.001321  -0.022030   0.385082
    20  H   -0.000000   0.000000   0.000011  -0.000123  -0.002759  -0.021259
    21  H    0.000000  -0.000000  -0.000003   0.000041   0.001290  -0.020270
    22  H   -0.000000   0.000008   0.000038  -0.000120   0.000010   0.000041
    23  H    0.000174  -0.001815  -0.000315   0.000008   0.000000  -0.000001
    24  H    0.000018   0.000044  -0.000009   0.000009  -0.000000   0.000000
    25  H   -0.000070  -0.024463   0.001243  -0.000010   0.000001  -0.000000
    26  H    0.000000   0.000002   0.001249  -0.026042  -0.002950   0.000089
               7          8          9         10         11         12
     1  O    0.000000   0.000000  -0.000000   0.000017  -0.000494  -0.028758
     2  C   -0.000001  -0.000014   0.000005  -0.001328  -0.006516   0.386767
     3  C   -0.000016  -0.000806   0.000014  -0.003178  -0.000029  -0.041421
     4  C   -0.003439  -0.003481  -0.000501  -0.009199  -0.001407  -0.007476
     5  C   -0.023866  -0.001768   0.000020   0.000225   0.000006  -0.000015
     6  C    0.358702  -0.024771  -0.001690   0.000596  -0.000009   0.000002
     7  C    4.787249   0.358307  -0.026853  -0.038714   0.000790  -0.000003
     8  C    0.358307   4.755950   0.440590   0.386024  -0.027747   0.000251
     9  O   -0.026853   0.440590   7.857098  -0.028261  -0.002665   0.000005
    10  C   -0.038714   0.386024  -0.028261   4.880766   0.508660  -0.010539
    11  C    0.000790  -0.027747  -0.002665   0.508660   4.825455   0.105088
    12  C   -0.000003   0.000251   0.000005  -0.010539   0.105088   4.900015
    13  O    0.000004   0.000018   0.000000  -0.014122  -0.014250   0.328485
    14  C   -0.000807  -0.006380  -0.000118   0.092945  -0.010702  -0.069778
    15  H    0.000007  -0.000025   0.000006  -0.000020  -0.000013   0.001314
    16  H    0.001282   0.000009  -0.000003  -0.000004  -0.000001  -0.000001
    17  H   -0.001369   0.000004  -0.000001   0.000018  -0.000000   0.000001
    18  H   -0.021260   0.001403  -0.000005  -0.000023   0.000000  -0.000000
    19  H   -0.023675  -0.004331   0.000698   0.000077  -0.000001  -0.000000
    20  H    0.384745  -0.020753   0.000617  -0.003298   0.000050  -0.000001
    21  H    0.381049  -0.021928  -0.001136   0.001059  -0.000022  -0.000000
    22  H   -0.001696  -0.022872   0.000517   0.391066  -0.023773   0.000667
    23  H    0.000059  -0.005278   0.001436  -0.024500   0.391800  -0.006657
    24  H   -0.000017   0.001305  -0.000002  -0.022913   0.392004  -0.007140
    25  H    0.000000  -0.000002  -0.000000   0.000076  -0.003708   0.385213
    26  H   -0.000112   0.000029  -0.000000  -0.003851   0.000059   0.002871
              13         14         15         16         17         18
     1  O    0.000063   0.000018  -0.000388  -0.000000   0.000000  -0.000000
     2  C   -0.014800  -0.009190  -0.024017   0.000015  -0.000021   0.000000
     3  C   -0.002686  -0.035152   0.392559  -0.003664   0.001241   0.000006
     4  C   -0.018960   0.438859  -0.024748  -0.022621  -0.024455   0.001371
     5  C    0.000262  -0.027084  -0.003400   0.383947   0.384711  -0.022192
     6  C   -0.000001  -0.000130   0.000044  -0.020837  -0.022195   0.384141
     7  C    0.000004  -0.000807   0.000007   0.001282  -0.001369  -0.021260
     8  C    0.000018  -0.006380  -0.000025   0.000009   0.000004   0.001403
     9  O    0.000000  -0.000118   0.000006  -0.000003  -0.000001  -0.000005
    10  C   -0.014122   0.092945  -0.000020  -0.000004   0.000018  -0.000023
    11  C   -0.014250  -0.010702  -0.000013  -0.000001  -0.000000   0.000000
    12  C    0.328485  -0.069778   0.001314  -0.000001   0.000001  -0.000000
    13  O    7.638641   0.333880  -0.000005  -0.000006   0.000019   0.000000
    14  C    0.333880   4.834626   0.001495   0.001222  -0.004860  -0.000011
    15  H   -0.000005   0.001495   0.579622   0.000425   0.000032  -0.000007
    16  H   -0.000006   0.001222   0.000425   0.614066  -0.021580  -0.001211
    17  H    0.000019  -0.004860   0.000032  -0.021580   0.628281  -0.003431
    18  H    0.000000  -0.000011  -0.000007  -0.001211  -0.003431   0.626826
    19  H    0.000000   0.000003   0.000031  -0.003388   0.001858  -0.021977
    20  H    0.000002  -0.000185  -0.000000   0.000019   0.000358  -0.001152
    21  H   -0.000000   0.000021   0.000000  -0.000033  -0.000002  -0.003248
    22  H   -0.000515  -0.008484  -0.000000  -0.000000  -0.000003  -0.000001
    23  H    0.000070   0.000580  -0.000006  -0.000000   0.000000   0.000000
    24  H   -0.000457   0.000598  -0.000000   0.000000   0.000000  -0.000000
    25  H   -0.021119   0.002796  -0.000032  -0.000000   0.000000   0.000000
    26  H   -0.022625   0.389976  -0.000033   0.000017   0.000306  -0.000006
              19         20         21         22         23         24
     1  O    0.000000  -0.000000   0.000000  -0.000000   0.000174   0.000018
     2  C   -0.000004   0.000000  -0.000000   0.000008  -0.001815   0.000044
     3  C    0.000196   0.000011  -0.000003   0.000038  -0.000315  -0.000009
     4  C   -0.001321  -0.000123   0.000041  -0.000120   0.000008   0.000009
     5  C   -0.022030  -0.002759   0.001290   0.000010   0.000000  -0.000000
     6  C    0.385082  -0.021259  -0.020270   0.000041  -0.000001   0.000000
     7  C   -0.023675   0.384745   0.381049  -0.001696   0.000059  -0.000017
     8  C   -0.004331  -0.020753  -0.021928  -0.022872  -0.005278   0.001305
     9  O    0.000698   0.000617  -0.001136   0.000517   0.001436  -0.000002
    10  C    0.000077  -0.003298   0.001059   0.391066  -0.024500  -0.022913
    11  C   -0.000001   0.000050  -0.000022  -0.023773   0.391800   0.392004
    12  C   -0.000000  -0.000001  -0.000000   0.000667  -0.006657  -0.007140
    13  O    0.000000   0.000002  -0.000000  -0.000515   0.000070  -0.000457
    14  C    0.000003  -0.000185   0.000021  -0.008484   0.000580   0.000598
    15  H    0.000031  -0.000000   0.000000  -0.000000  -0.000006  -0.000000
    16  H   -0.003388   0.000019  -0.000033  -0.000000  -0.000000   0.000000
    17  H    0.001858   0.000358  -0.000002  -0.000003   0.000000   0.000000
    18  H   -0.021977  -0.001152  -0.003248  -0.000001   0.000000  -0.000000
    19  H    0.617921   0.001881  -0.001416  -0.000002  -0.000001   0.000000
    20  H    0.001881   0.627343  -0.021526  -0.000309  -0.000000  -0.000002
    21  H   -0.001416  -0.021526   0.615852   0.000025  -0.000001   0.000001
    22  H   -0.000002  -0.000309   0.000025   0.605231   0.001677  -0.004189
    23  H   -0.000001  -0.000000  -0.000001   0.001677   0.578519  -0.021804
    24  H    0.000000  -0.000002   0.000001  -0.004189  -0.021804   0.593695
    25  H   -0.000000   0.000000  -0.000000  -0.000009   0.000062  -0.000929
    26  H   -0.000001  -0.000199   0.000001  -0.001304  -0.000006  -0.000006
              25         26
     1  O   -0.000070   0.000000
     2  C   -0.024463   0.000002
     3  C    0.001243   0.001249
     4  C   -0.000010  -0.026042
     5  C    0.000001  -0.002950
     6  C   -0.000000   0.000089
     7  C    0.000000  -0.000112
     8  C   -0.000002   0.000029
     9  O   -0.000000  -0.000000
    10  C    0.000076  -0.003851
    11  C   -0.003708   0.000059
    12  C    0.385213   0.002871
    13  O   -0.021119  -0.022625
    14  C    0.002796   0.389976
    15  H   -0.000032  -0.000033
    16  H   -0.000000   0.000017
    17  H    0.000000   0.000306
    18  H    0.000000  -0.000006
    19  H   -0.000000  -0.000001
    20  H    0.000000  -0.000199
    21  H   -0.000000   0.000001
    22  H   -0.000009  -0.001304
    23  H    0.000062  -0.000006
    24  H   -0.000929  -0.000006
    25  H    0.571287  -0.000061
    26  H   -0.000061   0.580685
 Mulliken charges:
               1
     1  O   -0.275941
     2  C    0.168413
     3  C   -0.093932
     4  C    0.004401
     5  C   -0.107030
     6  C   -0.092948
     7  C   -0.130366
     8  C    0.196265
     9  O   -0.239773
    10  C   -0.101581
    11  C   -0.132576
    12  C    0.061111
    13  O   -0.191897
    14  C    0.075863
    15  H    0.077161
    16  H    0.072347
    17  H    0.061087
    18  H    0.060777
    19  H    0.070400
    20  H    0.056540
    21  H    0.070248
    22  H    0.063998
    23  H    0.086000
    24  H    0.069793
    25  H    0.089726
    26  H    0.081913
 Sum of Mulliken charges =  -0.00000
 Mulliken charges with hydrogens summed into heavy atoms:
               1
     1  O   -0.275941
     2  C    0.168413
     3  C   -0.016771
     4  C    0.004401
     5  C    0.026404
     6  C    0.038228
     7  C   -0.003577
     8  C    0.196265
     9  O   -0.239773
    10  C   -0.037583
    11  C    0.023216
    12  C    0.150837
    13  O   -0.191897
    14  C    0.157776
 APT charges:
               1
     1  O    0.071186
     2  C   -0.133695
     3  C   -0.474579
     4  C   -0.166806
     5  C   -0.877594
     6  C   -0.896986
     7  C   -0.912794
     8  C    0.079308
     9  O   -0.149380
    10  C   -0.607852
    11  C   -0.755358
    12  C   -0.481071
    13  O   -0.177716
    14  C   -0.317756
    15  H    0.489238
    16  H    0.501259
    17  H    0.437351
    18  H    0.696795
    19  H    0.258377
    20  H    0.307146
    21  H    0.624054
    22  H    0.452353
    23  H    0.285090
    24  H    0.585017
    25  H    0.673443
    26  H    0.490973
 Sum of APT charges =  -0.00000
 APT charges with hydrogens summed into heavy atoms:
               1
     1  O    0.071186
     2  C   -0.133695
     3  C    0.014659
     4  C   -0.166806
     5  C    0.061016
     6  C    0.058186
     7  C    0.018405
     8  C    0.079308
     9  O   -0.149380
    10  C   -0.155499
    11  C    0.114748
    12  C    0.192371
    13  O   -0.177716
    14  C    0.173217
 Electronic spatial extent (au):  <R**2>=           2160.0643
 Charge=              0.0000 electrons
 Dipole moment (field-independent basis, Debye):
    X=             -2.4630    Y=             -0.9109    Z=              3.8066  Tot=              4.6245
 Quadrupole moment (field-independent basis, Debye-Ang):
   XX=            -78.1723   YY=            -74.7799   ZZ=            -81.8354
   XY=              2.8685   XZ=              3.6458   YZ=              1.4611
 Traceless Quadrupole moment (field-independent basis, Debye-Ang):
   XX=              0.0902   YY=              3.4827   ZZ=             -3.5729
   XY=              2.8685   XZ=              3.6458   YZ=              1.4611
 Octapole moment (field-independent basis, Debye-Ang**2):
  XXX=             -5.2514  YYY=              0.4155  ZZZ=              5.9684  XYY=              4.5332
  XXY=              6.8767  XXZ=             17.4893  XZZ=             -8.4776  YZZ=             -2.4592
  YYZ=             -0.3530  XYZ=             -4.7775
 Hexadecapole moment (field-independent basis, Debye-Ang**3):
 XXXX=          -1407.2443 YYYY=           -700.3279 ZZZZ=           -500.5251 XXXY=             -0.3474
 XXXZ=             60.3865 YYYX=            -12.7684 YYYZ=              1.4636 ZZZX=             -0.6779
 ZZZY=             -2.4903 XXYY=           -340.6952 XXZZ=           -351.6423 YYZZ=           -197.8518
 XXYZ=            -11.3043 YYXZ=              0.5685 ZZXY=              9.5761
 N-N= 9.438137753687D+02 E-N=-3.386864624400D+03  KE= 6.344161282728D+02
  Exact polarizability:   0.000   0.000   0.000   0.000   0.000   0.000
 Approx polarizability:  80.464   1.836  56.109 -19.505   1.940  81.673
 No NMR shielding tensors so no spin-rotation constants.
 Leave Link  601 at Tue Jan 27 17:49:22 2026, MaxMem=  4294967296 cpu:               1.1 elap:               0.1
 (Enter /root/g16/l701.exe)
 ... and contract with generalized density number  0.
 Compute integral second derivatives.
 Leave Link  701 at Tue Jan 27 17:49:22 2026, MaxMem=  4294967296 cpu:               0.8 elap:               0.1
 (Enter /root/g16/l702.exe)
 L702 exits ... SP integral derivatives will be done elsewhere.
 Leave Link  702 at Tue Jan 27 17:49:22 2026, MaxMem=  4294967296 cpu:               0.3 elap:               0.0
 (Enter /root/g16/l703.exe)
 Integral derivatives from FoFJK, PRISM(SPDF).
 Compute integral second derivatives, UseDBF=F ICtDFT=           0.
 Calling FoFJK, ICntrl=    100147 FMM=F ISym2X=0 I1Cent= 0 IOpClX= 0 NMat=1 NMatS=1 NMatT=0.
 FoFJK:  IHMeth= 1 ICntrl=  100147 DoSepK=F KAlg= 0 I1Cent=           0 FoldK=F
 IRaf=         0 NMat=       1 IRICut=       1 DoRegI=T DoRafI=F ISym2E= 0 IDoP0=0 IntGTp=1.
 FoFCou: FMM=F IPFlag=           0 FMFlag=      100000 FMFlg1=         800
         NFxFlg=           0 DoJE=F BraDBF=F KetDBF=F FulRan=T
         wScrn=  0.000000 ICntrl=    100147 IOpCl=  0 I1Cent=           0 NGrid=           0
         NMat0=    1 NMatS0=      1 NMatT0=    0 NMatD0=    1 NMtDS0=    0 NMtDT0=    0
 Symmetry not used in FoFCou.
 Leave Link  703 at Tue Jan 27 17:49:22 2026, MaxMem=  4294967296 cpu:               5.7 elap:               0.4
 (Enter /root/g16/l716.exe)
 Dipole        =-9.69034247D-01-3.58392924D-01 1.49762310D+00
 Polarizability= 0.00000000D+00 0.00000000D+00 0.00000000D+00
                 0.00000000D+00 0.00000000D+00 0.00000000D+00
 ***** Axes restored to original set *****
 -------------------------------------------------------------------
 Center     Atomic                   Forces (Hartrees/Bohr)
 Number     Number              X              Y              Z
 -------------------------------------------------------------------
      1        8           0.006795952    0.001692723   -0.009647031
      2        6           0.023841261   -0.010065293   -0.020090651
      3        6          -0.043680354   -0.014209514    0.022849392
      4        6           0.038668808   -0.021382831   -0.034906298
      5        6          -0.011632968   -0.017020387    0.003179154
      6        6          -0.012212870   -0.005370454   -0.004265675
      7        6          -0.022793921   -0.001556489    0.000770245
      8        6          -0.006819881    0.013643713   -0.002370253
      9        8           0.003407860   -0.000230321   -0.021633517
     10        6           0.021003740   -0.014385330    0.034092387
     11        6           0.029939620   -0.039967247    0.012918762
     12        6          -0.016091911    0.064580009   -0.008672652
     13        8           0.022122318   -0.009296687    0.029713164
     14        6          -0.030719349    0.040229845   -0.004219420
     15        1          -0.002720325   -0.001149564   -0.001956424
     16        1          -0.000591154    0.000978348    0.003338578
     17        1           0.000833978   -0.001804032   -0.003383292
     18        1           0.001824802   -0.000013372   -0.001910736
     19        1          -0.002117859   -0.001273513    0.003015955
     20        1          -0.000773933    0.001144609   -0.003536267
     21        1           0.000469140   -0.001237399    0.004984706
     22        1          -0.002199987    0.006709921   -0.002222354
     23        1          -0.000700762    0.006252353   -0.004193821
     24        1          -0.000268194    0.007666103   -0.000591462
     25        1           0.006652667   -0.000769698    0.003900442
     26        1          -0.002236678   -0.003165491    0.004837067
 -------------------------------------------------------------------
 Cartesian Forces:  Max     0.064580009 RMS     0.016900120
 FormGI is forming the generalized inverse of G from B-inverse, IUseBI=4.
 GSVD:  received Info=                   1 from GESDD.
 Leave Link  716 at Tue Jan 27 17:49:22 2026, MaxMem=  4294967296 cpu:               0.3 elap:               0.0
 (Enter /root/g16/l103.exe)

 GradGradGradGradGradGradGradGradGradGradGradGradGradGradGradGradGradGrad
 Berny optimization.
 Red2BG is reusing G-inverse.
 Internal  Forces:  Max     0.222980675 RMS     0.041229384
 Search for a saddle point.
 Step number   1 out of a maximum of  137
 All quantities printed in internal units (Hartrees-Bohrs-Radians)
 Swapping is turned off.
 Second derivative matrix not updated -- analytic derivatives used.
 ITU=  0
     Eigenvalues ---   -3.35473   0.00452   0.00665   0.00743   0.00983
     Eigenvalues ---    0.01128   0.01894   0.02192   0.02812   0.03379
     Eigenvalues ---    0.03631   0.03884   0.04145   0.04419   0.04739
     Eigenvalues ---    0.05252   0.05438   0.05784   0.06815   0.07399
     Eigenvalues ---    0.08936   0.11206   0.11643   0.12252   0.12554
     Eigenvalues ---    0.13227   0.13503   0.13991   0.14536   0.15136
     Eigenvalues ---    0.15963   0.17136   0.17352   0.18935   0.19814
     Eigenvalues ---    0.20877   0.21522   0.23289   0.26142   0.26660
     Eigenvalues ---    0.28400   0.29073   0.32852   0.36395   0.41045
     Eigenvalues ---    0.41825   0.43833   0.44098   0.45456   0.46137
     Eigenvalues ---    0.46222   0.46486   0.46695   0.47294   0.47382
     Eigenvalues ---    0.47620   0.48860   0.49233   0.49472   0.49507
     Eigenvalues ---    0.49615   0.50818   0.53394   0.54368   0.60529
     Eigenvalues ---    0.66122   0.73405   1.04068   1.14916   1.25773
     Eigenvalues ---    1.41119   4.10749
 Eigenvectors required to have negative eigenvalues:
                          A16       A10       R19       A22       A17
   1                   -0.44546  -0.41467   0.30755  -0.25687   0.18734
                          D32       A13       D42       A19       A40
   1                   -0.15158   0.14450   0.14222   0.13383  -0.13348
 RFO step:  Lambda0=5.262182937D-02 Lambda=-4.33326203D-02.
 Linear search not attempted -- option 19 set.
 Iteration  1 RMS(Cart)=  0.05539338 RMS(Int)=  0.00102212
 Iteration  2 RMS(Cart)=  0.00172164 RMS(Int)=  0.00047883
 Iteration  3 RMS(Cart)=  0.00000184 RMS(Int)=  0.00047883
 Iteration  4 RMS(Cart)=  0.00000000 RMS(Int)=  0.00047883
 ITry= 1 IFail=0 DXMaxC= 2.21D-01 DCOld= 1.00D+10 DXMaxT= 3.00D-01 DXLimC= 3.00D+00 Rises=F
 Variable       Old X    -DE/DX   Delta X   Delta X   Delta X     New X
                                 (Linear)    (Quad)   (Total)
    R1        2.32286   0.01181   0.00000   0.00814   0.00814   2.33100
    R2        2.74112   0.03823   0.00000   0.05523   0.05552   2.79664
    R3        2.76710   0.03933   0.00000   0.04787   0.04799   2.81509
    R4        2.56939  -0.02598   0.00000  -0.01682  -0.01669   2.55271
    R5        2.03858   0.00262   0.00000   0.00571   0.00571   2.04428
    R6        2.83491   0.02397   0.00000   0.04698   0.04698   2.88189
    R7        2.70024   0.03021   0.00000  -0.00139  -0.00154   2.69870
    R8        2.90374  -0.02850   0.00000   0.03008   0.03008   2.93382
    R9        2.06071  -0.00232   0.00000  -0.00425  -0.00425   2.05646
   R10        2.06211  -0.00326   0.00000  -0.00591  -0.00591   2.05620
   R11        2.89780  -0.01643   0.00000   0.02731   0.02731   2.92511
   R12        2.06046  -0.00194   0.00000  -0.00316  -0.00316   2.05730
   R13        2.06234  -0.00331   0.00000  -0.00540  -0.00540   2.05693
   R14        2.86700   0.02209   0.00000   0.05583   0.05583   2.92283
   R15        2.05735  -0.00336   0.00000  -0.00453  -0.00453   2.05282
   R16        2.06305  -0.00303   0.00000  -0.00553  -0.00553   2.05752
   R17        2.29583   0.02187   0.00000   0.01603   0.01603   2.31187
   R18        2.79170   0.04621   0.00000   0.05444   0.05444   2.84614
   R19        2.62081   0.01521   0.00000  -0.08994  -0.08994   2.53087
   R20        2.04081   0.00100   0.00000   0.00105   0.00105   2.04186
   R21        2.03651   0.00375   0.00000   0.00727   0.00727   2.04378
   R22        2.03460   0.00435   0.00000   0.00806   0.00806   2.04266
   R23        2.51662   0.02494   0.00000  -0.00505  -0.00524   2.51138
   R24        2.04510   0.00650   0.00000   0.01154   0.01154   2.05664
   R25        2.50662   0.02186   0.00000   0.00857   0.00833   2.51495
   R26        2.04473   0.00537   0.00000   0.00593   0.00593   2.05066
    A1        2.17511  -0.00074   0.00000   0.01769   0.01776   2.19287
    A2        2.12890  -0.00077   0.00000   0.01288   0.01296   2.14185
    A3        1.97918   0.00151   0.00000  -0.03057  -0.03087   1.94831
    A4        2.10503  -0.00146   0.00000   0.02099   0.02059   2.12563
    A5        2.05157   0.00227   0.00000  -0.00313  -0.00294   2.04863
    A6        2.12639  -0.00107   0.00000  -0.01781  -0.01761   2.10878
    A7        2.15977   0.01078   0.00000  -0.00959  -0.00925   2.15052
    A8        2.05807   0.00520   0.00000   0.02139   0.02062   2.07869
    A9        2.06496  -0.01679   0.00000  -0.01212  -0.01174   2.05322
   A10        1.94557  -0.22298   0.00000   0.01296   0.01292   1.95849
   A11        1.91070   0.07015   0.00000   0.00159   0.00157   1.91227
   A12        1.90934   0.06314   0.00000  -0.00408  -0.00415   1.90519
   A13        1.89735   0.07539   0.00000  -0.00291  -0.00294   1.89442
   A14        1.90473   0.04842   0.00000   0.00517   0.00515   1.90988
   A15        1.89545  -0.03036   0.00000  -0.01340  -0.01341   1.88204
   A16        1.94880  -0.22271   0.00000   0.03169   0.03159   1.98040
   A17        1.90033   0.09192   0.00000  -0.01381  -0.01387   1.88645
   A18        1.91386   0.03749   0.00000   0.00068   0.00050   1.91436
   A19        1.92089   0.06988   0.00000  -0.00217  -0.00210   1.91879
   A20        1.88668   0.06225   0.00000  -0.00318  -0.00337   1.88332
   A21        1.89248  -0.03515   0.00000  -0.01434  -0.01442   1.87806
   A22        1.88795  -0.12809   0.00000   0.02408   0.02399   1.91194
   A23        1.93724   0.01670   0.00000  -0.00121  -0.00117   1.93606
   A24        1.89675   0.05470   0.00000  -0.00024  -0.00040   1.89635
   A25        1.95001   0.01476   0.00000  -0.01081  -0.01085   1.93916
   A26        1.88443   0.06417   0.00000   0.00441   0.00427   1.88870
   A27        1.90601  -0.01962   0.00000  -0.01558  -0.01561   1.89040
   A28        2.10926   0.01875   0.00000  -0.00569  -0.00570   2.10356
   A29        2.04351  -0.04079   0.00000   0.01239   0.01238   2.05589
   A30        2.12981   0.02069   0.00000  -0.00688  -0.00688   2.12293
   A31        2.06922   0.01839   0.00000   0.02040   0.01894   2.08817
   A32        2.05036  -0.01052   0.00000   0.00403   0.00253   2.05289
   A33        2.10339  -0.00224   0.00000   0.00762   0.00615   2.10954
   A34        2.06918   0.00013   0.00000   0.02821   0.02668   2.09586
   A35        2.10506  -0.00166   0.00000   0.01998   0.01845   2.12351
   A36        2.04360  -0.00205   0.00000  -0.01493  -0.01652   2.02708
   A37        2.12512  -0.00673   0.00000  -0.00172  -0.00265   2.12247
   A38        2.06301   0.00112   0.00000   0.02910   0.02950   2.09250
   A39        1.98193  -0.00140   0.00000  -0.01468  -0.01467   1.96726
   A40        2.01320  -0.01562   0.00000   0.05885   0.05807   2.07127
   A41        2.10039   0.01095   0.00000  -0.01130  -0.01370   2.08668
   A42        2.09908  -0.00812   0.00000   0.03976   0.03946   2.13853
   A43        1.96211   0.00218   0.00000   0.01229   0.01139   1.97350
    D1       -3.01085   0.00778   0.00000  -0.01339  -0.01296  -3.02381
    D2        0.11025  -0.00588   0.00000  -0.01084  -0.01083   0.09942
    D3        0.13083  -0.00361   0.00000  -0.03122  -0.03119   0.09964
    D4       -3.03126  -0.01727   0.00000  -0.02867  -0.02906  -3.06031
    D5       -2.92175   0.00706   0.00000  -0.02463  -0.02436  -2.94612
    D6       -0.30520  -0.00832   0.00000  -0.00124  -0.00106  -0.30625
    D7        0.21976   0.01811   0.00000  -0.00733  -0.00675   0.21300
    D8        2.83631   0.00272   0.00000   0.01606   0.01656   2.85287
    D9        3.02574  -0.04017   0.00000  -0.01578  -0.01650   3.00924
   D10       -0.08556  -0.00790   0.00000  -0.00336  -0.00392  -0.08948
   D11       -0.09447  -0.02596   0.00000  -0.01864  -0.01890  -0.11337
   D12        3.07743   0.00631   0.00000  -0.00623  -0.00633   3.07110
   D13       -1.46988  -0.00961   0.00000   0.02787   0.02783  -1.44204
   D14        0.62999  -0.01148   0.00000   0.03358   0.03356   0.66356
   D15        2.70511   0.03123   0.00000   0.01577   0.01576   2.72087
   D16        1.64130  -0.04164   0.00000   0.01596   0.01596   1.65726
   D17       -2.54201  -0.04351   0.00000   0.02166   0.02169  -2.52032
   D18       -0.46690  -0.00080   0.00000   0.00385   0.00389  -0.46301
   D19       -0.32046   0.00388   0.00000   0.08544   0.08489  -0.23556
   D20       -2.91358  -0.00718   0.00000  -0.00292  -0.00362  -2.91720
   D21        2.84976   0.03389   0.00000   0.09716   0.09676   2.94652
   D22        0.25663   0.02283   0.00000   0.00880   0.00825   0.26488
   D23       -0.85737   0.02815   0.00000   0.00671   0.00662  -0.85075
   D24       -2.98187   0.02227   0.00000  -0.00171  -0.00168  -2.98354
   D25        1.23331  -0.01142   0.00000   0.02344   0.02344   1.25675
   D26       -2.96507   0.03122   0.00000  -0.00150  -0.00157  -2.96664
   D27        1.19362   0.02533   0.00000  -0.00992  -0.00987   1.18375
   D28       -0.87439  -0.00836   0.00000   0.01523   0.01525  -0.85914
   D29        1.25353  -0.00338   0.00000   0.01335   0.01330   1.26683
   D30       -0.87097  -0.00926   0.00000   0.00493   0.00500  -0.86596
   D31       -2.93897  -0.04295   0.00000   0.03008   0.03012  -2.90885
   D32        1.25133  -0.07294   0.00000   0.01478   0.01477   1.26609
   D33       -0.89383  -0.01627   0.00000   0.01291   0.01289  -0.88094
   D34       -2.99015  -0.03728   0.00000   0.03304   0.03305  -2.95710
   D35       -2.91928  -0.05706   0.00000   0.01690   0.01692  -2.90236
   D36        1.21875  -0.00039   0.00000   0.01503   0.01504   1.23379
   D37       -0.87757  -0.02139   0.00000   0.03516   0.03521  -0.84236
   D38       -0.85529  -0.02308   0.00000  -0.00351  -0.00353  -0.85882
   D39       -3.00044   0.03359   0.00000  -0.00537  -0.00541  -3.00585
   D40        1.18642   0.01259   0.00000   0.01475   0.01475   1.20117
   D41        1.08144   0.02795   0.00000  -0.00036  -0.00028   1.08116
   D42       -2.02356   0.06851   0.00000   0.00540   0.00548  -2.01808
   D43       -3.06438  -0.02887   0.00000   0.00759   0.00755  -3.05683
[...]
 8643,-0.03499528,-0.09340087,0.00228415,0.07059938,0.00043009,-0.00115
 496,-0.00102977,0.00002481,-0.00072488,-0.00109644,0.00000086,0.000495
 70,-0.00020939,0.00019926,-0.00005381,-0.00008425,-0.00003774,0.000012
 87,0.00006546,-0.00004425,-0.00005608,0.00000449,0.00011964,0.00001933
 ,0.00003387,-0.00023869,-0.00023340,-0.00012200,-0.00017665,0.00009294
 ,-0.00004274,0.00141682,-0.00139662,0.00102155,-0.00455985,0.00344441,
 -0.00242422,-0.00180617,0.00624523,0.04110424,0.08759480,0.00005716,0.
 00003714,-0.00001463,-0.00006434,-0.00013181,-0.00007042,0.00014025,0.
 00014543,0.00012195,-0.00078886,-0.00025550,-0.00063083,-0.00485624,0.
 00009070,0.02487625,0.00245181,-0.07517344,-0.02728777,0.00728621,-0.0
 0296274,-0.04594556,0.00072748,0.00228907,-0.00186377,0.00042255,0.000
 97581,0.00068343,0.00018638,-0.00038732,0.00016690,0.00000575,-0.00003
 544,0.00006830,-0.00000270,0.00005290,-0.00001877,-0.00003354,0.000046
 99,0.00003665,0.00015170,0.00016023,-0.00008299,0.00007816,0.00002880,
 0.00001794,-0.00098282,0.00149842,0.00002384,0.00443362,-0.00178533,0.
 00205494,-0.00176853,0.00253796,0.01948399,-0.00721872,0.07981128,0.00
 004336,0.00000066,-0.00001468,-0.00012808,0.00002967,0.00000812,0.0000
 9620,-0.00007794,0.00001149,0.00074244,-0.00043034,0.00085915,0.005842
 66,-0.00135993,-0.01506271,0.07136822,-0.02617026,-0.44321845,0.001054
 13,0.00104842,-0.00467219,0.00009010,0.00117005,0.00008279,-0.00002237
 ,0.00019557,0.00050563,0.00018650,0.00008901,-0.00006324,-0.00003158,0
 .00003348,0.00006776,-0.00002490,-0.00003783,0.00002403,0.00006437,0.0
 0005786,0.00004352,0.00000940,-0.00004241,-0.00008554,-0.00001539,-0.0
 0001294,0.00007120,0.00067773,-0.00084281,0.00162493,-0.00235836,0.001
 33883,-0.00002859,-0.00496083,-0.00259265,-0.00058926,-0.07318909,0.02
 788389,0.45896784,0.00003498,-0.00000959,-0.00013303,0.00005726,0.0000
 9950,0.00032290,-0.00000524,0.00005041,0.00001388,-0.00008274,-0.00002
 398,-0.00016345,0.00012674,-0.00040867,0.00062576,0.00028880,0.0007468
 6,0.00136916,-0.07889766,0.00411738,0.01299644,0.00361789,0.00665540,0
 .03526545,-0.00653211,-0.00473028,0.00278458,0.00101627,0.00065665,0.0
 0006917,0.00041671,0.00005147,-0.00009759,0.00024250,0.00011544,-0.000
 52173,-0.00062216,-0.00019080,0.00019101,0.00032815,0.00009149,0.00013
 853,-0.00000372,-0.00002052,0.00001131,0.00003308,-0.00006112,0.000008
 38,0.00011922,-0.00002537,0.00003314,0.00010642,0.00038670,-0.00014800
 ,0.00087472,0.00018993,0.00040262,0.07314041,-0.00000919,0.00002978,0.
 00004765,-0.00002266,-0.00004744,-0.00009948,0.00000139,0.00001819,0.0
 0002600,-0.00000613,-0.00029274,0.00010774,-0.00056193,0.00297249,-0.0
 0001051,0.00255329,-0.00191761,-0.04665860,0.00361719,-0.07753426,-0.0
 4106134,0.00298269,0.00348181,0.02119667,-0.00521397,-0.00221512,0.002
 05252,0.00024879,0.00012655,0.00040146,0.00020315,0.00002923,-0.000165
 23,-0.00001662,0.00008879,0.00001607,-0.00009900,0.00005947,0.00003914
 ,0.00030528,0.00004409,-0.00002171,-0.00001344,-0.00001486,0.00001958,
 -0.00032007,0.00028642,-0.00001709,0.00017414,-0.00010935,0.00032802,0
 .00025301,0.00159892,0.00088683,-0.00031721,-0.00862443,-0.00039213,-0
 .00056696,0.07922953,-0.00003550,0.00000583,0.00006775,0.00004132,-0.0
 0000453,-0.00010782,-0.00010424,-0.00003431,0.00004039,0.00008327,-0.0
 0005561,-0.00002265,-0.00025302,0.00112336,0.00105500,0.00021199,0.002
 01967,-0.00326036,0.01355248,-0.03863146,-0.45527664,-0.00462400,-0.00
 330445,-0.01002717,0.00190532,0.00092439,0.00136711,-0.00208913,-0.001
 08856,0.00114825,-0.00023369,-0.00014249,0.00005076,-0.00002650,0.0000
 1848,0.00011526,0.00002367,0.00004333,-0.00005384,-0.00024135,0.000086
 71,-0.00008384,-0.00000513,-0.00000315,-0.00001034,-0.00020672,0.00015
 524,-0.00001089,0.00023192,-0.00018885,0.00016346,-0.00022976,0.000171
 69,0.00042925,-0.00029600,-0.00030786,0.00084870,-0.01427803,0.0435665
 7,0.47226179,-0.00004783,0.00002382,0.00006048,0.00007448,-0.00002859,
 -0.00010260,-0.00001069,0.00006063,0.00005557,0.00009114,-0.00031307,0
 .00002299,0.00077413,-0.00140366,-0.00035989,0.00317696,-0.00354557,0.
 00052894,-0.33420977,0.13192038,-0.12677372,-0.02551396,0.01183659,-0.
 01107020,0.00416985,-0.00055951,-0.00306901,-0.00138627,-0.00207086,0.
 00183497,-0.00014214,-0.00056297,-0.00062723,0.00006353,0.00006090,0.0
 0003863,-0.00008902,0.00002753,-0.00005677,0.00017236,-0.00005433,0.00
 013598,-0.00000315,-0.00002128,-0.00000083,0.00028349,-0.00008799,0.00
 017324,0.00001111,0.00003553,-0.00003681,0.00126693,-0.00054084,0.0003
 3017,0.00005384,-0.00042674,0.00010066,0.00657780,-0.00284827,0.007083
 11,0.34500928,0.00005616,0.00007873,-0.00003878,-0.00005583,-0.0001366
 1,0.00002909,0.00024009,0.00025095,0.00010913,-0.00112696,-0.00037973,
 -0.00044157,-0.00119227,-0.00685288,-0.00398849,0.03571411,-0.01730737
 ,0.01907243,0.12512024,-0.12714545,0.06076917,-0.02076457,0.01067359,-
 0.00877864,0.00123638,-0.00076943,-0.00091841,-0.00196956,-0.00301316,
 0.00165958,-0.00003159,-0.00057563,-0.00074457,0.00018853,0.00018454,-
 0.00030089,-0.00048483,0.00002442,0.00015817,0.00046604,0.00004304,0.0
 0007783,0.00000076,-0.00001787,0.00005140,0.00143036,-0.00083292,0.001
 24375,-0.00000863,0.00019306,-0.00018557,0.00025413,0.00290091,0.00091
 476,-0.00035344,0.00168879,0.00010217,-0.00670104,0.00310941,-0.004366
 84,-0.13161394,0.13785369,0.00001909,0.00001278,0.00005909,-0.00011783
 ,-0.00010419,-0.00020360,0.00004512,0.00001654,0.00001898,-0.00010572,
 -0.00008490,-0.00000298,-0.00050855,-0.00230544,-0.00033585,0.01170987
 ,-0.00704121,0.00631544,-0.12062579,0.05852455,-0.14001047,0.01652443,
 -0.00810612,0.00796775,-0.00136758,0.00111669,0.00029802,0.00075995,0.
 00120726,-0.00084188,0.00003698,0.00027369,0.00059291,-0.00021796,-0.0
 0001468,0.00031951,0.00040154,0.00013576,-0.00005757,-0.00038235,0.000
 04658,-0.00022705,-0.00000212,0.00002767,0.00001277,0.00031074,-0.0001
 7090,0.00046787,0.00011151,-0.00014832,0.00007364,-0.00011478,0.000454
 70,0.00037408,0.00011854,0.00077562,0.00055826,-0.03875501,0.01967636,
 -0.00915091,0.13174875,-0.06437387,0.13363007,-0.00011452,0.00017960,0
 .00009664,-0.00009764,-0.00045401,-0.00023654,-0.00035563,-0.00008041,
 0.00021346,0.00015852,-0.00052547,-0.00080337,-0.00001967,-0.00004137,
 -0.00006681,0.00008527,0.00027193,0.00007305,0.00036150,0.00142470,-0.
 00035669,0.01246855,-0.00669471,-0.02428623,-0.00473613,-0.00172305,-0
 .00451462,-0.11891449,0.01865688,0.12491204,-0.00262672,0.00845274,0.0
 3654933,-0.00140954,0.00107646,0.00089476,0.00228800,-0.00054477,0.000
 30662,-0.00223256,0.00504967,-0.00037734,-0.00001034,0.00007567,-0.000
 02698,0.00001318,-0.00000801,0.00001205,0.00002378,-0.00000810,0.00001
 275,0.00000155,-0.00005501,0.00001422,-0.00000047,0.00000763,0.0000053
 8,-0.00058637,-0.00058766,-0.00021726,-0.00014449,-0.00019088,0.000182
 46,0.11829783,0.00058904,-0.00001485,-0.00023796,-0.00105459,0.0000746
 1,-0.00004232,0.00199118,0.00016354,-0.00105694,-0.00060629,0.00228205
 ,0.00295116,-0.00012401,0.00007314,-0.00000693,-0.00005499,0.00004564,
 0.00002932,0.00066306,0.00042720,0.00034565,0.00940250,-0.00025729,-0.
 00664211,-0.00225818,0.00056651,-0.00240334,0.02611553,-0.06757480,-0.
 10666366,-0.01450238,0.00965227,0.01623204,0.00271897,-0.00470581,0.00
 109590,-0.00236559,0.00225330,-0.00224983,0.00443491,-0.01333056,0.000
 45427,0.00009360,-0.00008476,0.00011833,0.00005334,0.00002027,0.000031
 36,-0.00000891,-0.00003987,0.00001362,0.00001081,-0.00002410,-0.000000
 98,0.00001080,0.00005853,0.00000847,-0.00060483,-0.00030354,-0.0000779
 7,0.00006680,-0.00000669,0.00015248,-0.02231619,0.06741467,-0.00065125
 ,-0.00002361,0.00039713,0.00129252,0.00040225,-0.00003844,-0.00157298,
 -0.00014134,0.00099630,-0.00008397,-0.00143348,-0.00247952,-0.00005152
 ,-0.00010828,-0.00002736,0.00007696,0.00028817,0.00012045,0.00059718,0
 .00148764,0.00075900,0.01379951,0.00091318,-0.01336007,-0.00357801,-0.
 00224562,-0.00087268,0.12516055,-0.09920520,-0.40063904,-0.00143435,-0
 .00550253,-0.00036928,-0.00076816,0.00321214,-0.00171233,-0.00210186,-
 0.00107721,0.00115907,0.00060385,0.00639141,0.00109634,-0.00005650,-0.
 00014790,-0.00012257,0.00003426,-0.00001741,0.00001620,0.00003682,-0.0
 0000149,0.00002047,0.00002415,-0.00007006,0.00004020,0.00002392,0.0000
 2167,0.00001637,-0.00006186,-0.00003863,0.00040053,-0.00006584,-0.0001
 5239,0.00011843,-0.13143119,0.09763312,0.41300907,-0.00024205,-0.00054
 285,0.00048768,0.00052064,0.00048807,-0.00173597,-0.00059887,-0.000297
 40,0.00010036,0.00037296,-0.00047264,-0.00068410,0.00005882,0.00000920
 ,0.00003794,0.00010409,-0.00010432,-0.00008136,0.00051688,0.00000156,0
 .00021847,-0.00041436,0.00424074,-0.00062917,0.00177017,0.00003622,-0.
 00015088,-0.00517268,0.00298929,0.04088812,-0.09124030,-0.01034701,0.0
 9388702,-0.00210905,0.00437339,-0.00305138,0.00194160,0.00053635,0.000
 49495,-0.00234491,0.00264173,-0.00133041,0.00000135,0.00008875,0.00002
 428,-0.00003122,0.00001392,-0.00001970,-0.00001632,0.00000717,-0.00000
 888,-0.00001017,0.00008871,0.00000593,-0.00001913,-0.00000476,-0.00001
 409,0.00007546,0.00005853,-0.00002287,0.00010085,0.00013391,-0.0001126
 2,-0.00338886,-0.00750808,0.00226365,0.09091503,0.00052157,0.00054727,
 -0.00079040,-0.00111071,-0.00135231,0.00242350,0.00158073,0.00025098,-
 0.00067018,-0.00020329,0.00167271,0.00226630,-0.00000078,-0.00000991,0
 .00001910,0.00017750,-0.00000093,-0.00007514,-0.00052145,0.00071631,-0
 .00019567,0.00244507,-0.00784632,0.00231964,0.00058631,0.00085219,0.00
 075016,0.00490001,0.01194317,0.00617701,-0.02003098,-0.05539083,-0.032
 46897,0.00409088,-0.00949656,0.00808398,-0.00075801,0.00026000,-0.0026
 0470,0.00078547,-0.00590315,0.00263383,0.00010484,-0.00001308,0.000101
 48,0.00000501,-0.00000550,-0.00000341,0.00000720,0.00001763,-0.0000107
 5,-0.00001078,0.00003817,0.00000168,-0.00001641,-0.00003633,-0.0000055
 2,0.00004164,0.00001199,-0.00002109,-0.00010104,-0.00009637,0.00006860
 ,-0.00465786,0.00907507,-0.00357114,0.00352128,0.05146666,-0.00015295,
 0.00009072,-0.00048238,0.00072759,-0.00070029,0.00132548,-0.00005199,-
 0.00011131,0.00008807,-0.00012536,-0.00029984,-0.00013955,0.00002961,-
 0.00002722,-0.00002678,-0.00004145,0.00006445,0.00002709,-0.00006550,-
 0.00009530,-0.00007488,0.00021095,0.00252913,0.00032745,-0.00045212,-0
 .00076152,-0.00003762,-0.00533323,-0.00274753,0.00093827,0.10273541,-0
 .03725767,-0.45192114,-0.00074319,0.00239476,-0.00386047,-0.00156604,-
 0.00077288,0.00220421,0.00115372,0.00013070,-0.00018832,-0.00007682,-0
 .00002325,-0.00001517,-0.00001245,-0.00001697,0.00001030,-0.00000873,-
 0.00000304,-0.00000126,-0.00000309,-0.00004095,-0.00000444,0.00000881,
 -0.00000390,0.00000803,0.00003420,-0.00000168,-0.00000956,-0.00002731,
 -0.00002349,-0.00000281,0.00079545,-0.00230451,0.00054849,-0.10678470,
 0.03529859,0.45821939,-0.00040668,0.00012977,0.00057987,-0.00023638,-0
 .00098927,-0.00138325,-0.00024097,-0.00051864,0.00003550,0.00041899,-0
 .00051892,-0.00090267,-0.00009656,-0.00001204,-0.00006507,-0.00019748,
 0.00013223,0.00008108,-0.00106336,0.00025699,-0.00147774,-0.00223618,-
 0.00703436,0.00622814,0.00110690,0.00114899,0.00014959,-0.01549889,-0.
 02336773,-0.02365946,-0.20429669,-0.14535237,-0.12981279,-0.00202876,0
 .00850111,0.00146229,0.00212505,-0.00040545,0.00049249,-0.00220134,0.0
 0325022,-0.00109630,-0.00003305,0.00015684,-0.00001418,0.00004384,-0.0
 0000260,0.00000892,0.00002993,0.00000743,0.00000426,0.00003914,-0.0001
 2369,-0.00000776,0.00000341,-0.00002834,0.00001410,0.00006054,0.000006
 72,-0.00005627,-0.00028082,-0.00032095,0.00020244,0.00062181,0.0052594
 0,-0.00168161,0.00887252,0.00872945,0.00997798,0.21501978,0.00060519,-
 0.00001086,-0.00046766,-0.00048068,0.00072289,0.00082738,0.00096281,0.
 00061397,-0.00023670,-0.00032273,0.00123437,0.00199917,0.00004083,0.00
 002793,0.00006551,-0.00013521,-0.00003750,0.00006036,0.00096130,-0.000
 89455,0.00030001,-0.00417467,0.00926377,-0.00370333,0.00015055,-0.0010
 8414,0.00021018,0.00539669,0.00982749,-0.00933348,-0.16003880,-0.17832
 160,-0.13701530,0.00327652,-0.01585756,0.00133190,0.00067249,0.0032484
 8,-0.00414195,-0.00048416,-0.00486249,0.00078696,0.00007876,-0.0000635
 3,0.00002613,-0.00000656,0.00000913,0.00000132,-0.00001957,-0.00001008
 ,-0.00000443,0.00001198,0.00000408,-0.00000517,0.00000128,0.00005329,-
 0.00000580,-0.00003985,-0.00000654,0.00003513,0.00016430,0.00018295,-0
 .00008689,0.00302703,-0.00629036,0.00326649,0.00022399,0.00304752,0.00
 494216,0.15056925,0.17834070,-0.00042159,-0.00019173,0.00073261,0.0005
 9008,-0.00003940,-0.00140112,-0.00087480,-0.00046121,0.00044380,0.0003
 9104,-0.00076081,-0.00153848,-0.00001276,0.00002298,0.00000875,0.00019
 772,-0.00009676,-0.00009171,0.00016044,0.00056556,0.00045662,0.0024632
 2,-0.00323472,-0.00164235,-0.00051982,0.00038204,0.00093257,0.01384208
 ,0.00747066,0.01601355,-0.12987664,-0.13742198,-0.21606961,-0.00145521
 ,0.00598685,0.00084386,0.00035227,-0.00037739,0.00062885,-0.00023512,0
 .00301800,-0.00037333,-0.00003590,0.00004421,-0.00006312,-0.00000899,0
 .00001411,-0.00001357,0.00000176,-0.00000153,0.00000517,-0.00002443,0.
 00008831,0.00001446,-0.00000444,-0.00000834,-0.00000195,-0.00002080,0.
 00000643,0.00003733,0.00004838,0.00004658,-0.00002004,-0.00181141,0.00
 283884,0.00050975,-0.02379527,-0.01939143,-0.00701802,0.14082103,0.141
 45281,0.20731251,-0.00106626,-0.00094603,-0.00140259,0.00957213,0.0096
 8954,0.00841887,-0.00097826,-0.00167046,0.00419084,-0.00131751,-0.0021
 7208,-0.00417265,-0.00024162,0.00020014,-0.00034921,-0.00014427,-0.000
 02028,0.00001324,-0.00001659,-0.00000845,-0.00002868,0.00027057,0.0000
 8053,-0.00006643,-0.00009623,-0.00003435,0.00002745,0.00084496,0.00135
 805,-0.00072386,-0.00415969,0.00102771,-0.00040945,-0.37094103,-0.1630
 9111,-0.07794130,-0.03132336,-0.00403167,-0.00168970,0.01172075,0.0001
 8224,0.00517354,-0.00071942,0.00061374,-0.00086994,-0.00000070,0.00000
 054,0.00002883,0.00006460,-0.00001888,0.00000669,0.00001118,-0.0000097
 1,-0.00001344,-0.00000054,-0.00000404,0.00000224,-0.00004228,0.0000109
 8,0.00001063,0.00000811,-0.00001833,0.00003010,0.00008144,-0.00012409,
 -0.00000762,0.00024150,-0.00022446,-0.00005284,0.00034179,-0.00057017,
 0.00019528,0.38846791,-0.00192027,-0.00104675,0.00379817,-0.00987681,0
 .00084005,-0.00272590,-0.00685188,0.00074677,-0.00282495,-0.00003209,-
 0.00198141,-0.00874402,0.00034513,-0.00071851,0.00058672,0.00005476,0.
 00025987,0.00001650,-0.00007259,0.00004350,-0.00004399,0.00086768,0.00
 086658,0.00033461,-0.00016646,-0.00024689,-0.00019041,-0.00264978,-0.0
 0274793,0.00168883,0.00623174,-0.00042228,0.00085402,-0.14296813,-0.10
 048894,-0.05179304,-0.01711173,-0.01698886,0.01273915,0.01314738,0.015
 44326,0.00107096,0.00035920,-0.00300150,0.00134094,0.00001179,-0.00001
 699,0.00001269,-0.00008041,-0.00005590,0.00005325,0.00005852,-0.000079
 94,0.00005690,0.00002159,-0.00001765,0.00000460,-0.00006173,-0.0000045
 2,-0.00000230,-0.00000740,-0.00004806,0.00002839,0.00007284,0.00023975
 ,-0.00031119,0.00003371,0.00008392,-0.00034847,0.00076623,0.00071187,0
 .00015792,0.16120101,0.10677552,0.00192476,0.00190126,0.00281682,-0.02
 495219,-0.00394369,0.00837803,0.00078064,-0.00526848,-0.00428726,0.001
 15332,-0.00114230,-0.00116321,-0.00007606,0.00050586,0.00013665,-0.000
 06133,-0.00017239,0.00005785,0.00003918,-0.00004210,-0.00000738,-0.000
 22944,-0.00024099,-0.00018548,0.00004848,0.00009756,0.00011259,0.00039
 113,0.00023056,0.00018013,-0.00075862,-0.00053676,-0.00009046,-0.09269
 636,-0.05669931,-0.09539699,0.04703450,0.02274058,0.00402165,-0.000648
 47,-0.00179922,-0.00535814,-0.00233497,-0.00008176,-0.00021951,0.00001
 507,0.00004536,0.00002360,-0.00009908,-0.00005321,0.00001969,-0.000046
 19,0.00005434,-0.00003591,0.00000952,0.00000860,0.00001520,-0.00000214
 ,0.00001802,0.00000971,0.00000805,0.00003206,0.00000907,-0.00004665,0.
 00008064,0.00005193,0.00000236,-0.00009483,0.00005111,0.00007886,-0.00
 019742,0.00020963,0.06887707,0.04433448,0.08972370,0.00042160,0.000033
 41,-0.00166060,0.00142618,0.00077778,0.00449638,0.00107057,-0.00291629
 ,-0.00218316,0.00760042,0.00221588,-0.00739417,0.00070801,0.00140424,-
 0.00153120,-0.00032204,-0.00038953,0.00005781,-0.00006552,-0.00008193,
 -0.00016283,0.00094415,0.00087555,0.00040988,-0.00020178,-0.00027810,-
 0.00012401,-0.00093555,-0.00117041,-0.00025725,0.00060567,-0.00051599,
 0.00010634,0.00432475,-0.00115648,-0.01618587,-0.04276466,-0.00653343,
 0.04508585,-0.15224355,-0.01523936,0.16541954,0.00055473,-0.00052264,-
 0.00058441,-0.00008679,-0.00001209,0.00016083,-0.00013513,-0.00035015,
 -0.00032337,-0.00008876,0.00003392,-0.00010044,-0.00001554,0.00004097,
 0.00004459,-0.00034468,0.00016795,-0.00022423,-0.00000570,-0.00000788,
 0.00010878,0.00023605,0.00011817,-0.00036664,0.00009607,0.00013883,-0.
 00017595,0.00013347,0.00012942,0.00003388,-0.00057715,-0.00137229,0.00
 158860,0.17966516,-0.00035863,-0.00016665,0.00153231,-0.00048034,0.000
 47861,-0.00141962,-0.00750263,-0.00078106,-0.00103830,0.01330292,-0.00
 236195,-0.02533071,0.00269869,-0.00066661,0.00086400,0.00028227,0.0002
 5953,0.00006359,0.00000453,0.00010184,0.00009383,-0.00058191,-0.000620
 79,-0.00035585,0.00006188,0.00019780,0.00011351,-0.00107725,-0.0017396
 8,0.00317398,0.00239290,-0.00073202,-0.00030253,-0.00831386,0.00554748
 ,0.00263771,0.00143955,-0.00919729,0.01564982,-0.02483518,-0.03380144,
 0.00131465,0.00090801,0.00015645,-0.00062951,-0.00022309,-0.00003077,-
 0.00002346,-0.00030646,-0.00007949,-0.00001718,0.00000805,-0.00002297,
 0.00003952,0.00001643,-0.00006534,0.00000785,0.00024185,-0.00001626,0.
 00007911,-0.00001040,-0.00000191,-0.00008114,-0.00040765,0.00028609,0.
 00043142,-0.00020946,0.00016771,0.00008933,-0.00024029,0.00015076,-0.0
 0011000,-0.00142039,0.00185505,0.00022314,0.02461045,0.04108290,0.0001
 9113,0.00063646,0.00121385,-0.00282591,-0.00240849,-0.00378746,-0.0012
 9505,-0.00382717,-0.00217005,0.01432896,0.01028462,-0.00741984,0.00097
 274,0.00115224,0.00066839,0.00004841,-0.00019552,0.00004219,0.00010862
 ,-0.00003395,-0.00000417,-0.00051904,-0.00066986,-0.00039285,0.0001381
 6,0.00020302,0.00024567,0.00156320,0.00146095,-0.00128104,-0.00143904,
 0.00071719,0.00028969,-0.00381003,-0.00369269,0.00606964,-0.00463438,0
 .00560497,0.00895077,0.18142612,-0.01170428,-0.37707684,0.00139622,-0.
 00003510,-0.00011171,-0.00007678,0.00008552,0.00012071,-0.00013998,-0.
 00004239,0.00011830,-0.00004017,0.00007489,-0.00001748,0.00001877,0.00
 001085,0.00002357,-0.00008487,0.00007735,0.00001872,0.00002030,0.00004
 738,0.00003729,0.00010689,-0.00029864,0.00036155,0.00001064,-0.0002406
 3,0.00003449,0.00002054,-0.00010736,0.00008383,0.00075294,-0.00009386,
 0.00092698,-0.18623838,0.00299452,0.37305577\\-0.00000531,0.00001423,-
 0.00001081,-0.00001326,0.00001430,0.00000507,0.00000371,0.00000879,-0.
 00000430,-0.00000793,0.00003233,0.00006619,0.00004148,0.00001277,-0.00
 008509,-0.00004325,-0.00000338,0.00002826,0.00004584,0.00000884,0.0000
 5160,-0.00000023,-0.00003925,-0.00002577,-0.00000793,0.00001183,-0.000
 00051,0.00003815,0.00001388,-0.00000670,-0.00002846,0.00002882,-0.0000
 3461,0.00002595,-0.00003622,0.00002716,-0.00003106,0.00001536,-0.00002
 754,0.00000983,-0.00005404,0.00002163,0.00000251,-0.00000935,0.0000061
 3,-0.00000020,-0.00000315,0.00000776,0.00000084,-0.00000165,-0.0000009
 0,0.00000585,-0.00000872,0.00000795,-0.00001585,0.00000357,-0.00000389
 ,-0.00003035,0.00000839,-0.00000201,0.00001194,-0.00000248,-0.00002944
 ,-0.00000141,-0.00001100,0.00000485,-0.00000214,0.00000470,-0.00000020
 ,0.00001001,-0.00001669,0.00000533,-0.00000114,-0.00000173,0.00000324,
 -0.00000761,0.00000985,-0.00000340\\\@


 QUANTUM MECHANICS IS BOHRING -- M.S. GORDON
 Job cpu time:       0 days  0 hours  0 minutes 43.3 seconds.
 Elapsed time:       0 days  0 hours  0 minutes  2.7 seconds.
 File lengths (MBytes):  RWF=     33 Int=      0 D2E=      0 Chk=      3 Scr=      1
 Normal termination of Gaussian 16 at Tue Jan 27 17:49:43 2026.
