
                                 *****************
                                 * O   R   C   A *
                                 *****************

                                            #,                                       
                                            ###                                      
                                            ####                                     
                                            #####                                    
                                            ######                                   
                                           ########,                                 
                                     ,,################,,,,,                         
                               ,,#################################,,                 
                          ,,##########################################,,             
                       ,#########################################, ''#####,          
                    ,#############################################,,   '####,        
                  ,##################################################,,,,####,       
                ,###########''''           ''''###############################       
              ,#####''   ,,,,##########,,,,          '''####'''          '####       
            ,##' ,,,,###########################,,,                        '##       
           ' ,,###''''                  '''############,,,                           
         ,,##''                                '''############,,,,        ,,,,,,###''
      ,#''                                            '''#######################'''  
     '                                                          ''''####''''         
             ,#######,   #######,   ,#######,      ##                                
            ,#'     '#,  ##    ##  ,#'     '#,    #''#        ######   ,####,        
            ##       ##  ##   ,#'  ##            #'  '#       #        #'  '#        
            ##       ##  #######   ##           ,######,      #####,   #    #        
            '#,     ,#'  ##    ##  '#,     ,#' ,#      #,         ##   #,  ,#        
             '#######'   ##     ##  '#######'  #'      '#     #####' # '####'        



                  #######################################################
                  #                        -***-                        #
                  #          Department of theory and spectroscopy      #
                  #    Directorship and core code : Frank Neese         #
                  #        Max Planck Institute fuer Kohlenforschung    #
                  #                Kaiser Wilhelm Platz 1               #
                  #                 D-45470 Muelheim/Ruhr               #
                  #                      Germany                        #
                  #                                                     #
                  #                  All rights reserved                #
                  #                        -***-                        #
                  #######################################################


                         Program Version 5.0.4 -  RELEASE  -


 With contributions from (in alphabetic order):
   Daniel Aravena         : Magnetic Suceptibility
   Michael Atanasov       : Ab Initio Ligand Field Theory (pilot matlab implementation)
   Alexander A. Auer      : GIAO ZORA, VPT2 properties, NMR spectrum
   Ute Becker             : Parallelization
   Giovanni Bistoni       : ED, misc. LED, open-shell LED, HFLD
   Martin Brehm           : Molecular dynamics
   Dmytro Bykov           : SCF Hessian
   Vijay G. Chilkuri      : MRCI spin determinant printing, contributions to CSF-ICE
   Dipayan Datta          : RHF DLPNO-CCSD density
   Achintya Kumar Dutta   : EOM-CC, STEOM-CC
   Dmitry Ganyushin       : Spin-Orbit,Spin-Spin,Magnetic field MRCI
   Miquel Garcia          : C-PCM and meta-GGA Hessian, CC/C-PCM, Gaussian charge scheme
   Yang Guo               : DLPNO-NEVPT2, F12-NEVPT2, CIM, IAO-localization
   Andreas Hansen         : Spin unrestricted coupled pair/coupled cluster methods
   Benjamin Helmich-Paris : MC-RPA, TRAH-SCF, COSX integrals
   Lee Huntington         : MR-EOM, pCC
   Robert Izsak           : Overlap fitted RIJCOSX, COSX-SCS-MP3, EOM
   Marcus Kettner         : VPT2
   Christian Kollmar      : KDIIS, OOCD, Brueckner-CCSD(T), CCSD density, CASPT2, CASPT2-K
   Simone Kossmann        : Meta GGA functionals, TD-DFT gradient, OOMP2, MP2 Hessian
   Martin Krupicka        : Initial AUTO-CI
   Lucas Lang             : DCDCAS
   Marvin Lechner         : AUTO-CI (C++ implementation), FIC-MRCC
   Dagmar Lenk            : GEPOL surface, SMD
   Dimitrios Liakos       : Extrapolation schemes; Compound Job, initial MDCI parallelization
   Dimitrios Manganas     : Further ROCIS development; embedding schemes
   Dimitrios Pantazis     : SARC Basis sets
   Anastasios Papadopoulos: AUTO-CI, single reference methods and gradients
   Taras Petrenko         : DFT Hessian,TD-DFT gradient, ASA, ECA, R-Raman, ABS, FL, XAS/XES, NRVS
   Peter Pinski           : DLPNO-MP2, DLPNO-MP2 Gradient
   Christoph Reimann      : Effective Core Potentials
   Marius Retegan         : Local ZFS, SOC
   Christoph Riplinger    : Optimizer, TS searches, QM/MM, DLPNO-CCSD(T), (RO)-DLPNO pert. Triples
   Tobias Risthaus        : Range-separated hybrids, TD-DFT gradient, RPA, STAB
   Michael Roemelt        : Original ROCIS implementation
   Masaaki Saitow         : Open-shell DLPNO-CCSD energy and density
   Barbara Sandhoefer     : DKH picture change effects
   Avijit Sen             : IP-ROCIS
   Kantharuban Sivalingam : CASSCF convergence, NEVPT2, FIC-MRCI
   Bernardo de Souza      : ESD, SOC TD-DFT
   Georgi Stoychev        : AutoAux, RI-MP2 NMR, DLPNO-MP2 response
   Willem Van den Heuvel  : Paramagnetic NMR
   Boris Wezisla          : Elementary symmetry handling
   Frank Wennmohs         : Technical directorship


 We gratefully acknowledge several colleagues who have allowed us to
 interface, adapt or use parts of their codes:
   Stefan Grimme, W. Hujo, H. Kruse, P. Pracht,  : VdW corrections, initial TS optimization,
                  C. Bannwarth, S. Ehlert          DFT functionals, gCP, sTDA/sTD-DF
   Ed Valeev, F. Pavosevic, A. Kumar             : LibInt (2-el integral package), F12 methods
   Garnet Chan, S. Sharma, J. Yang, R. Olivares  : DMRG
   Ulf Ekstrom                                   : XCFun DFT Library
   Mihaly Kallay                                 : mrcc  (arbitrary order and MRCC methods)
   Jiri Pittner, Ondrej Demel                    : Mk-CCSD
   Frank Weinhold                                : gennbo (NPA and NBO analysis)
   Christopher J. Cramer and Donald G. Truhlar   : smd solvation model
   Lars Goerigk                                  : TD-DFT with DH, B97 family of functionals
   V. Asgeirsson, H. Jonsson                     : NEB implementation
   FAccTs GmbH                                   : IRC, NEB, NEB-TS, DLPNO-Multilevel, CI-OPT
                                                   MM, QMMM, 2- and 3-layer-ONIOM, Crystal-QMMM,
                                                   LR-CPCM, SF, NACMEs, symmetry and pop. for TD-DFT,
                                                   nearIR, NL-DFT gradient (VV10), updates on ESD,
                                                   ML-optimized integration grids
   S Lehtola, MJT Oliveira, MAL Marques          : LibXC Library
   Liviu Ungur et al                             : ANISO software


 Your calculation uses the libint2 library for the computation of 2-el integrals
 For citations please refer to: http://libint.valeyev.net

 Your ORCA version has been built with support for libXC version: 5.1.0
 For citations please refer to: https://tddft.org/programs/libxc/

 This ORCA versions uses:
   CBLAS   interface :  Fast vector & matrix operations
   LAPACKE interface :  Fast linear algebra routines
   SCALAPACK package :  Parallel linear algebra routines
   Shared memory     :  Shared parallel matrices
   BLAS/LAPACK       :  OpenBLAS 0.3.15  USE64BITINT DYNAMIC_ARCH NO_AFFINITY Zen SINGLE_THREADED
        Core in use  :  Zen
   Copyright (c) 2011-2014, The OpenBLAS Project


Your calculation utilizes the DFT-NL dispersion correction.
Cite in your paper:
Vydrov, O. A.; Van Voorhis, T. J. Chem. Phys. 2010, 133, 244103
Hujo, W.; Grimme, S. J. Chem. Theory Comput. 2011, 7, 3866 
   

Your calculation utilizes the SMD solvation module
Please cite in your paper:
A.V. Marenich, C.J. Cramer, D.G. Truhlar J. Phys. Chem. B, 113, (2009), 6378 

================================================================================

----- Orbital basis set information -----
Your calculation utilizes the basis: def2-TZVPP
   F. Weigend and R. Ahlrichs, Phys. Chem. Chem. Phys. 7, 3297 (2005).

----- AuxJ basis set information -----
Your calculation utilizes the auxiliary basis: def2/J
   F. Weigend, Phys. Chem. Chem. Phys. 8, 1057 (2006).

================================================================================
                                        WARNINGS
                       Please study these warnings very carefully!
================================================================================

Using LibXC functional ID 531 : wB97M-V exchange-correlation functional
[ 1]  N. Mardirossian and M. Head-Gordon, J. Chem. Phys. 144, 214110 (2016)
Using LibXC functional ID 531 : wB97M-V exchange-correlation functional
[ 1]  N. Mardirossian and M. Head-Gordon, J. Chem. Phys. 144, 214110 (2016)

WARNING: B97M-V or wB97M-V functional requested.
  ===> : libXC variant has now been activated.
         Any manually given DFX/HFX/RangeSep scaling parameters are IGNORED!

Your calculation utilizes LibXC
 by S Lehtola, C Steigemann, MJT Oliveira & MAL Marques
Please cite in your paper:
 S Lehtola, C Steigemann, MJT Oliveira & MAL Marques, SoftwareX, 7, (2018), 1.
   


INFO   : the flag for use of the SHARK integral package has been found!

================================================================================
                                       INPUT FILE
================================================================================
NAME = conf_003_SP.inp
|  1> ! WB97M-V def2-TZVPP def2/J RIJCOSX tightSCF noautostart miniprint nopop
|  2> %maxcore 1638
|  3> %pal nprocs 16 end
|  4> 
|  5> %cpcm
|  6>    smd true
|  7>    SMDsolvent "acetone"
|  8> end
|  9> 
| 10>  * xyz 0 1
| 11> O    -3.2057980000    0.2707370000   -1.2880040000
| 12> C    -2.2375780000    0.2880190000   -0.5467070000
| 13> C    -1.2366780000    1.3687800000   -0.5224910000
| 14> C    -0.1641790000    1.2810030000    0.2955310000
| 15> C     1.0104410000    2.2055760000    0.2507800000
| 16> C     2.3328590000    1.4219910000    0.1240050000
| 17> C     2.2646690000    0.2627140000   -0.8855970000
| 18> C     1.7746920000   -1.0612980000   -0.3188250000
| 19> O     2.3627280000   -2.0938970000   -0.5755140000
| 20> C     0.5255520000   -1.1494830000    0.5555360000
| 21> C    -0.7086440000   -1.6930840000   -0.2242620000
| 22> C    -1.8874100000   -0.8761350000    0.3813570000
| 23> O    -1.3770950000   -0.3416700000    1.5995230000
| 24> C    -0.0768900000    0.1073970000    1.2469000000
| 25> H    -1.3592440000    2.1916470000   -1.2319980000
| 26> H     0.8970290000    2.9012190000   -0.5941550000
| 27> H     1.0380720000    2.8110970000    1.1739610000
| 28> H     2.6471650000    1.0376240000    1.1083090000
| 29> H     3.1222780000    2.1215020000   -0.1874980000
| 30> H     3.2517740000    0.0526240000   -1.3195950000
| 31> H     1.5990840000    0.5355450000   -1.7246960000
| 32> H     0.7735350000   -1.8666390000    1.3508230000
| 33> H    -0.6246200000   -1.5399960000   -1.3101620000
| 34> H    -0.8370520000   -2.7682790000   -0.0501490000
| 35> H    -2.7823640000   -1.4745330000    0.5922930000
| 36> H     0.4546620000    0.3839460000    2.1674650000
| 37>  *
| 38> 
| 39>                          ****END OF INPUT****
================================================================================

                       ****************************
                       * Single Point Calculation *
                       ****************************

---------------------------------
CARTESIAN COORDINATES (ANGSTROEM)
---------------------------------
  O     -3.205798    0.270737   -1.288004
  C     -2.237578    0.288019   -0.546707
  C     -1.236678    1.368780   -0.522491
  C     -0.164179    1.281003    0.295531
  C      1.010441    2.205576    0.250780
  C      2.332859    1.421991    0.124005
  C      2.264669    0.262714   -0.885597
  C      1.774692   -1.061298   -0.318825
  O      2.362728   -2.093897   -0.575514
  C      0.525552   -1.149483    0.555536
  C     -0.708644   -1.693084   -0.224262
  C     -1.887410   -0.876135    0.381357
  O     -1.377095   -0.341670    1.599523
  C     -0.076890    0.107397    1.246900
  H     -1.359244    2.191647   -1.231998
  H      0.897029    2.901219   -0.594155
  H      1.038072    2.811097    1.173961
  H      2.647165    1.037624    1.108309
  H      3.122278    2.121502   -0.187498
  H      3.251774    0.052624   -1.319595
  H      1.599084    0.535545   -1.724696
  H      0.773535   -1.866639    1.350823
  H     -0.624620   -1.539996   -1.310162
  H     -0.837052   -2.768279   -0.050149
  H     -2.782364   -1.474533    0.592293
  H      0.454662    0.383946    2.167465

----------------------------
CARTESIAN COORDINATES (A.U.)
----------------------------
  NO LB      ZA    FRAG     MASS         X           Y           Z
   0 O     8.0000    0    15.999   -6.058080    0.511619   -2.433975
   1 C     6.0000    0    12.011   -4.228410    0.544277   -1.033127
   2 C     6.0000    0    12.011   -2.336983    2.586619   -0.987365
   3 C     6.0000    0    12.011   -0.310253    2.420745    0.558473
   4 C     6.0000    0    12.011    1.909457    4.167935    0.473906
   5 C     6.0000    0    12.011    4.408465    2.687174    0.234335
   6 C     6.0000    0    12.011    4.279604    0.496458   -1.673536
   7 C     6.0000    0    12.011    3.353682   -2.005563   -0.602492
   8 O     8.0000    0    15.999    4.464909   -3.956892   -1.087564
   9 C     6.0000    0    12.011    0.993149   -2.172208    1.049811
  10 C     6.0000    0    12.011   -1.339143   -3.199465   -0.423794
  11 C     6.0000    0    12.011   -3.566688   -1.655655    0.720660
  12 O     8.0000    0    15.999   -2.602332   -0.645663    3.022660
  13 C     6.0000    0    12.011   -0.145301    0.202951    2.356300
  14 H     1.0000    0     1.008   -2.568599    4.141613   -2.328139
  15 H     1.0000    0     1.008    1.695139    5.482509   -1.122790
  16 H     1.0000    0     1.008    1.961672    5.312203    2.218465
  17 H     1.0000    0     1.008    5.002417    1.960825    2.094400
  18 H     1.0000    0     1.008    5.900250    4.009058   -0.354320
  19 H     1.0000    0     1.008    6.144962    0.099445   -2.493673
  20 H     1.0000    0     1.008    3.021831    1.012033   -3.259203
  21 H     1.0000    0     1.008    1.461769   -3.527437    2.552686
  22 H     1.0000    0     1.008   -1.180361   -2.910171   -2.475847
  23 H     1.0000    0     1.008   -1.581799   -5.231289   -0.094768
  24 H     1.0000    0     1.008   -5.257906   -2.786464    1.119272
  25 H     1.0000    0     1.008    0.859187    0.725553    4.095915



           ************************************************************
           *        Program running with 16 parallel MPI-processes    *
           *              working on a common directory               *
           ************************************************************
------------------------------------------------------------------------------
                   ___                                                        
                  /   \      - P O W E R E D   B Y -                         
                 /     \                                                     
                 |  |  |   _    _      __       _____    __    __             
                 |  |  |  | |  | |    /  \     |  _  \  |  |  /  |          
                  \  \/   | |  | |   /    \    | | | |  |  | /  /          
                 / \  \   | |__| |  /  /\  \   | |_| |  |  |/  /          
                |  |  |   |  __  | /  /__\  \  |    /   |      \           
                |  |  |   | |  | | |   __   |  |    \   |  |\   \          
                \     /   | |  | | |  |  |  |  | |\  \  |  | \   \       
                 \___/    |_|  |_| |__|  |__|  |_| \__\ |__|  \__/        
                                                                              
                      - O R C A' S   B I G   F R I E N D -                    
                                      &                                       
                       - I N T E G R A L  F E E D E R -                       
                                                                              
 v1 FN, 2020, v2 2021                                                         
------------------------------------------------------------------------------


Reading SHARK input file conf_003_SP.SHARKINP.tmp ... ok
----------------------
SHARK INTEGRAL PACKAGE
----------------------

Number of atoms                             ...     26
Number of basis functions                   ...    602
Number of shells                            ...    226
Maximum angular momentum                    ...      3
Integral batch strategy                     ... SHARK/LIBINT Hybrid
RI-J (if used) integral strategy            ... SPLIT-RIJ (Revised 2003 algorithm where possible)
Printlevel                                  ...      1
Contraction scheme used                     ... SEGMENTED contraction
Coulomb Range Separation                    ... NOT USED
Exchange Range Separation                   ... Long Range
   Mu parameter                             ...  0.300000
   Scaling (regular/separated)              ...  0.150000  0.850000
Finite Nucleus Model                        ... NOT USED
Auxiliary Coulomb fitting basis             ... AVAILABLE
   # of basis functions in Aux-J            ...    818
   # of shells in Aux-J                     ...    270
   Maximum angular momentum in Aux-J        ...      4
Auxiliary J/K fitting basis                 ... NOT available
Auxiliary Correlation fitting basis         ... NOT available
Auxiliary 'external' fitting basis          ... NOT available
Integral threshold                          ...     2.500000e-11
Primitive cut-off                           ...     2.500000e-12
Primitive pair pre-selection threshold      ...     2.500000e-12

Calculating pre-screening integrals         ... done (  0.0 sec) Dimension = 226
Organizing shell pair data                  ... done (  0.7 sec)
Shell pair information
Total number of shell pairs                 ...     25651
Shell pairs after pre-screening             ...     22093
Total number of primitive shell pairs       ...     71220
Primitive shell pairs kept                  ...     44870
          la=0 lb=0:   4747 shell pairs
          la=1 lb=0:   6144 shell pairs
          la=1 lb=1:   2019 shell pairs
          la=2 lb=0:   3503 shell pairs
          la=2 lb=1:   2315 shell pairs
          la=2 lb=2:    679 shell pairs
          la=3 lb=0:   1272 shell pairs
          la=3 lb=1:    837 shell pairs
          la=3 lb=2:    482 shell pairs
          la=3 lb=3:     95 shell pairs

Calculating one electron integrals          ... done (  0.0 sec)
Calculating RI/J V-Matrix + Cholesky decomp.... done (  0.1 sec)
Calculating Nuclear repulsion               ... done (  0.0 sec) ENN=    934.591634369597 Eh

SHARK setup successfully completed in   1.7 seconds

Maximum memory used throughout the entire GTOINT-calculation: 34.9 MB


           ************************************************************
           *        Program running with 16 parallel MPI-processes    *
           *              working on a common directory               *
           ************************************************************

Diagonalization of the overlap matrix:
Smallest eigenvalue                        ... 1.436e-05
Time for diagonalization                   ...    0.036 sec
Threshold for overlap eigenvalues          ... 1.000e-08
Number of eigenvalues below threshold      ... 0
Time for construction of square roots      ...    0.077 sec
Total time needed                          ...    0.114 sec

Time for model grid setup =    0.193 sec

Loading Hartree-Fock densities                     ... done
Calculating cut-offs                               ... done
Initializing the effective Hamiltonian             ... done
Setting up the integral package (SHARK)            ... done
Starting the Coulomb interaction                   ... done (   0.2 sec)
Reading the grid                                   ... done
Mapping shells                                     ... done
Starting the XC term evaluation                    ... done (   0.1 sec)
  promolecular density results
     # of electrons  =    101.985722475
     EX              =    -84.259687318
     EC              =     -3.451302208
     EX+EC           =    -87.710989527
Transforming the Hamiltonian                       ... done (   0.0 sec)
Diagonalizing the Hamiltonian                      ... done (   0.0 sec)
Back transforming the eigenvectors                 ... done (   0.0 sec)
Now organizing SCF variables                       ... done
-------------------
DFT GRID GENERATION
-------------------

General Integration Accuracy     IntAcc      ... 4.388
Radial Grid Type                 RadialGrid  ... OptM3 with GC (2021)
Angular Grid (max. ang.)         AngularGrid ... 4 (Lebedev-302)
Angular grid pruning method      GridPruning ... 4 (adaptive)
Weight generation scheme         WeightScheme... Becke
Basis function cutoff            BFCut       ... 1.0000e-11
Integration weight cutoff        WCut        ... 1.0000e-14
Angular grids for H and He will be reduced by one unit
Partially contracted basis set               ... off
Rotationally invariant grid construction     ... off

Total number of grid points                  ...   121588
Total number of batches                      ...     1914
Average number of points per batch           ...       63
Average number of grid points per atom       ...     4676
Time for grid setup =    0.683 sec

--------------------
COSX GRID GENERATION
--------------------

GRIDX 1
-------
General Integration Accuracy     IntAcc      ... 3.816
Radial Grid Type                 RadialGrid  ... OptM3 with GC (2021)
Angular Grid (max. ang.)         AngularGrid ... 1 (Lebedev-50)
Angular grid pruning method      GridPruning ... 4 (adaptive)
Weight generation scheme         WeightScheme... Becke
Basis function cutoff            BFCut       ... 1.0000e-11
Integration weight cutoff        WCut        ... 1.0000e-14
Angular grids for H and He will be reduced by one unit
Partially contracted basis set               ... on
Rotationally invariant grid construction     ... off

Total number of grid points                  ...    15427
Total number of batches                      ...      256
Average number of points per batch           ...       60
Average number of grid points per atom       ...      593
UseSFitting                                  ... on

GRIDX 2
-------
General Integration Accuracy     IntAcc      ... 4.020
Radial Grid Type                 RadialGrid  ... OptM3 with GC (2021)
Angular Grid (max. ang.)         AngularGrid ... 2 (Lebedev-110)
Angular grid pruning method      GridPruning ... 4 (adaptive)
Weight generation scheme         WeightScheme... Becke
Basis function cutoff            BFCut       ... 1.0000e-11
Integration weight cutoff        WCut        ... 1.0000e-14
Angular grids for H and He will be reduced by one unit
Partially contracted basis set               ... on
Rotationally invariant grid construction     ... off

Total number of grid points                  ...    33468
Total number of batches                      ...      535
Average number of points per batch           ...       62
Average number of grid points per atom       ...     1287
UseSFitting                                  ... on

GRIDX 3
-------
General Integration Accuracy     IntAcc      ... 4.338
Radial Grid Type                 RadialGrid  ... OptM3 with GC (2021)
Angular Grid (max. ang.)         AngularGrid ... 3 (Lebedev-194)
Angular grid pruning method      GridPruning ... 4 (adaptive)
Weight generation scheme         WeightScheme... Becke
Basis function cutoff            BFCut       ... 1.0000e-11
Integration weight cutoff        WCut        ... 1.0000e-14
Angular grids for H and He will be reduced by one unit
Partially contracted basis set               ... on
Rotationally invariant grid construction     ... off

Total number of grid points                  ...    73213
Total number of batches                      ...     1155
Average number of points per batch           ...       63
Average number of grid points per atom       ...     2816
UseSFitting                                  ... on

Time for X-Grid setup             =    3.150 sec


--------------------
CPCM SOLVATION MODEL
--------------------
CPCM parameters:
  Epsilon                                         ...      20.4930
  Refrac                                          ...       1.3588
  Rsolv                                           ...       1.3000
  Surface type                                    ... GAUSSIAN VDW
  Epsilon function type                           ...         CPCM
Solvent:                                     ... ACETONE
SMD-CDS solvent descriptors:
  Soln                                       ...    1.3588
  Soln25                                     ...    1.3559
  Sola                                       ...    0.0400
  Solb                                       ...    0.4900
  Solg                                       ...   33.7700
  Solc                                       ...    0.0000
  Solh                                       ...    0.0000
Radii:
 Radius for O  used is    4.1990 Bohr (=   2.2220 Ang.)
 Radius for C  used is    3.4960 Bohr (=   1.8500 Ang.)
 Radius for H  used is    2.2677 Bohr (=   1.2000 Ang.)
Calculating surface                               ...        done! (  0.0s)
GEPOL surface points                              ...         1360
GEPOL Volume                                      ...    1561.3098
GEPOL Surface-area                                ...     825.7059
Calculating surface distance matrix               ...        done! (  0.0s)
Performing Cholesky decomposition & store         ...        done! (  0.2s)
Overall time for CPCM initialization              ...                 0.2s
--------------
SCF ITERATIONS
--------------
ITER       Energy         Delta-E        Max-DP      RMS-DP      [F,P]     Damp
               ***  Starting incremental Fock matrix formation  ***
  0   -652.1286581278   0.000000000000 0.23255610  0.00157574  0.2618369 0.7000
  1   -652.2665694714  -0.137911343551 0.25211733  0.00156770  0.1296641 0.7000
                               ***Turning on DIIS***
  2   -652.3330963622  -0.066526890804 0.45694420  0.00304836  0.0513913 0.0000
  3   -652.4476430405  -0.114546678288 0.18767749  0.00101054  0.0617690 0.0000
  4   -652.4624487619  -0.014805721413 0.02204026  0.00015055  0.0122718 0.0000
  5   -652.4631536192  -0.000704857309 0.01447640  0.00008691  0.0049869 0.0000
                      *** Initiating the SOSCF procedure ***
                           *** Shutting down DIIS ***
                      *** Re-Reading the Fockian *** 
                      *** Removing any level shift *** 
ITER      Energy       Delta-E        Grad      Rot      Max-DP    RMS-DP
  6   -652.46327635  -0.0001227308  0.000820  0.000820  0.009808  0.000058
               *** Restarting incremental Fock matrix formation ***
  7   -652.46328363  -0.0000072840  0.000207  0.000551  0.007378  0.000042
  8   -652.46328714  -0.0000035107  0.000274  0.000826  0.002685  0.000016
  9   -652.46328894  -0.0000017917  0.000032  0.000123  0.000518  0.000007
 10   -652.46328903  -0.0000000894  0.000032  0.000035  0.000146  0.000002
 11   -652.46328909  -0.0000000618  0.000011  0.000032  0.000425  0.000002
                  ***Gradient check signals convergence***
              ***Rediagonalizing the Fockian in SOSCF/NRSCF***

               *****************************************************
               *                     SUCCESS                       *
               *           SCF CONVERGED AFTER  12 CYCLES          *
               *****************************************************

Old exchange energy                            =    -26.522398162 Eh
New exchange energy                            =    -26.522402039 Eh
Exchange energy change after final integration =     -0.000003877 Eh
Total energy after final integration           =   -652.463292986 Eh
Final COS-X integration done in                =     7.980 sec

------------------
NL GRID GENERATION
------------------

General Integration Accuracy     IntAcc      ... 4.004
Radial Grid Type                 RadialGrid  ... OptM3 with GC (2021)
Angular Grid (max. ang.)         AngularGrid ... 2 (Lebedev-110)
Angular grid pruning method      GridPruning ... 4 (adaptive)
Weight generation scheme         WeightScheme... Becke
Basis function cutoff            BFCut       ... 1.0000e-10
Integration weight cutoff        WCut        ... 1.0000e-14
Angular grids for H and He will be reduced by one unit
Partially contracted basis set               ... off
Rotationally invariant grid construction     ... off

Total number of grid points                  ...    38464
Total number of batches                      ...      612
Average number of points per batch           ...       62
Average number of grid points per atom       ...     1479
Final grid set up in    0.2 sec

-------------------------------------------------------------------------------
                    post-SCF DFT-NL dispersion correction                      
-------------------------------------------------------------------------------

SCF Energy:   -652.463292986 
NL    Energy:  0.377199825 
SC+NL Energy: -652.086093161 
NL done in:    1.1 sec
-------------------------------------------------------------------------------

SMD CDS free energy correction energy :                -5.18118     Kcal/mol
Total Energy after SMD CDS correction =              -652.094349902 Eh
Total Energy       :         -652.09434990 Eh          -17744.38937 eV
  Last Energy change         ...   -2.1798e-08  Tolerance :   1.0000e-08
  Last MAX-Density change    ...    1.3323e-15  Tolerance :   1.0000e-07
             **** THE GBW FILE WAS UPDATED (conf_003_SP.gbw) ****
             **** DENSITY conf_003_SP.scfp WAS UPDATED ****
             **** ENERGY FILE WAS UPDATED (conf_003_SP.en.tmp) ****
             **** THE GBW FILE WAS UPDATED (conf_003_SP.gbw) ****
             **** DENSITY conf_003_SP.scfp WAS UPDATED ****
----------------
ORBITAL ENERGIES
----------------

  NO   OCC          E(Eh)            E(eV) 
   0   2.0000     -19.348846      -526.5089 
   1   2.0000     -19.324939      -525.8583 
   2   2.0000     -19.323526      -525.8199 
   3   2.0000     -10.440825      -284.1093 
   4   2.0000     -10.434228      -283.9298 
   5   2.0000     -10.410207      -283.2761 
   6   2.0000     -10.403041      -283.0811 
   7   2.0000     -10.380161      -282.4585 
   8   2.0000     -10.364765      -282.0396 
   9   2.0000     -10.356662      -281.8191 
  10   2.0000     -10.351038      -281.6661 
  11   2.0000     -10.350809      -281.6598 
  12   2.0000     -10.348386      -281.5939 
  13   2.0000     -10.347749      -281.5766 
  14   2.0000      -1.195571       -32.5332 
  15   2.0000      -1.176237       -32.0070 
  16   2.0000      -1.168188       -31.7880 
  17   2.0000      -0.970026       -26.3958 
  18   2.0000      -0.916325       -24.9345 
  19   2.0000      -0.908968       -24.7343 
  20   2.0000      -0.883261       -24.0348 
  21   2.0000      -0.836654       -22.7665 
  22   2.0000      -0.759155       -20.6577 
  23   2.0000      -0.749582       -20.3972 
  24   2.0000      -0.741549       -20.1786 
  25   2.0000      -0.681170       -18.5356 
  26   2.0000      -0.659695       -17.9512 
  27   2.0000      -0.640445       -17.4274 
  28   2.0000      -0.615795       -16.7566 
  29   2.0000      -0.604660       -16.4536 
  30   2.0000      -0.584817       -15.9137 
  31   2.0000      -0.568999       -15.4833 
  32   2.0000      -0.556993       -15.1565 
  33   2.0000      -0.546600       -14.8737 
  34   2.0000      -0.535507       -14.5719 
  35   2.0000      -0.526461       -14.3257 
  36   2.0000      -0.523620       -14.2484 
  37   2.0000      -0.519545       -14.1375 
  38   2.0000      -0.490651       -13.3513 
  39   2.0000      -0.486340       -13.2340 
  40   2.0000      -0.480543       -13.0762 
  41   2.0000      -0.459859       -12.5134 
  42   2.0000      -0.455287       -12.3890 
  43   2.0000      -0.446751       -12.1567 
  44   2.0000      -0.440172       -11.9777 
  45   2.0000      -0.434680       -11.8282 
  46   2.0000      -0.421563       -11.4713 
  47   2.0000      -0.398700       -10.8492 
  48   2.0000      -0.360135        -9.7998 
  49   2.0000      -0.351890        -9.5754 
  50   2.0000      -0.338654        -9.2152 
  51   0.0000       0.023676         0.6443 
  52   0.0000       0.061903         1.6845 
  53   0.0000       0.099679         2.7124 
  54   0.0000       0.110908         3.0179 
  55   0.0000       0.121659         3.3105 
  56   0.0000       0.130666         3.5556 
  57   0.0000       0.135732         3.6935 
  58   0.0000       0.147892         4.0243 
  59   0.0000       0.152832         4.1588 
  60   0.0000       0.163294         4.4435 
  61   0.0000       0.170913         4.6508 
  62   0.0000       0.184609         5.0235 
  63   0.0000       0.186262         5.0684 
  64   0.0000       0.189810         5.1650 
  65   0.0000       0.197221         5.3667 
  66   0.0000       0.197856         5.3839 
  67   0.0000       0.216896         5.9020 
  68   0.0000       0.229753         6.2519 
  69   0.0000       0.231786         6.3072 
  70   0.0000       0.238845         6.4993 
  71   0.0000       0.252952         6.8832 
  72   0.0000       0.256837         6.9889 
  73   0.0000       0.265043         7.2122 
  74   0.0000       0.277387         7.5481 
  75   0.0000       0.285257         7.7622 
  76   0.0000       0.293023         7.9736 
  77   0.0000       0.301705         8.2098 
  78   0.0000       0.310659         8.4535 
  79   0.0000       0.315834         8.5943 
  80   0.0000       0.320851         8.7308 
  81   0.0000       0.324919         8.8415 
  82   0.0000       0.339444         9.2367 
  83   0.0000       0.349542         9.5115 
  84   0.0000       0.352599         9.5947 
  85   0.0000       0.369443        10.0530 
  86   0.0000       0.377601        10.2751 
  87   0.0000       0.384421        10.4606 
  88   0.0000       0.387297        10.5389 
  89   0.0000       0.394981        10.7480 
  90   0.0000       0.408905        11.1269 
  91   0.0000       0.412211        11.2168 
  92   0.0000       0.417196        11.3525 
  93   0.0000       0.427925        11.6444 
  94   0.0000       0.430791        11.7224 
  95   0.0000       0.435995        11.8640 
  96   0.0000       0.443129        12.0582 
  97   0.0000       0.447381        12.1739 
  98   0.0000       0.451251        12.2792 
  99   0.0000       0.458287        12.4706 
 100   0.0000       0.466446        12.6926 
 101   0.0000       0.468315        12.7435 
 102   0.0000       0.474123        12.9016 
 103   0.0000       0.480977        13.0880 
 104   0.0000       0.486084        13.2270 
 105   0.0000       0.492684        13.4066 
 106   0.0000       0.494441        13.4544 
 107   0.0000       0.502324        13.6689 
 108   0.0000       0.505487        13.7550 
 109   0.0000       0.508531        13.8378 
 110   0.0000       0.515277        14.0214 
 111   0.0000       0.519077        14.1248 
 112   0.0000       0.529893        14.4191 
 113   0.0000       0.534379        14.5412 
 114   0.0000       0.537446        14.6246 
 115   0.0000       0.541597        14.7376 
 116   0.0000       0.547174        14.8894 
 117   0.0000       0.549123        14.9424 
 118   0.0000       0.558071        15.1859 
 119   0.0000       0.572360        15.5747 
 120   0.0000       0.577385        15.7114 
 121   0.0000       0.589638        16.0449 
 122   0.0000       0.598441        16.2844 
 123   0.0000       0.602304        16.3895 
 124   0.0000       0.613656        16.6984 
 125   0.0000       0.622304        16.9337 
 126   0.0000       0.629004        17.1161 
 127   0.0000       0.639058        17.3896 
 128   0.0000       0.657859        17.9013 
 129   0.0000       0.665586        18.1115 
 130   0.0000       0.675791        18.3892 
 131   0.0000       0.687611        18.7108 
 132   0.0000       0.697149        18.9704 
 133   0.0000       0.702726        19.1221 
 134   0.0000       0.717834        19.5332 
 135   0.0000       0.739787        20.1306 
 136   0.0000       0.742487        20.2041 
 137   0.0000       0.754701        20.5364 
 138   0.0000       0.763341        20.7716 
 139   0.0000       0.776473        21.1289 
 140   0.0000       0.782090        21.2818 
 141   0.0000       0.802357        21.8332 
 142   0.0000       0.824165        22.4267 
 143   0.0000       0.825620        22.4663 
 144   0.0000       0.827751        22.5242 
 145   0.0000       0.838289        22.8110 
 146   0.0000       0.847784        23.0694 
 147   0.0000       0.857030        23.3210 
 148   0.0000       0.872438        23.7402 
 149   0.0000       0.888925        24.1889 
 150   0.0000       0.895755        24.3747 
 151   0.0000       0.919548        25.0222 
 152   0.0000       0.921853        25.0849 
 153   0.0000       0.929866        25.3029 
 154   0.0000       0.935715        25.4621 
 155   0.0000       0.940942        25.6043 
 156   0.0000       0.949178        25.8285 
 157   0.0000       0.956019        26.0146 
 158   0.0000       0.963605        26.2210 
 159   0.0000       0.977356        26.5952 
 160   0.0000       0.987006        26.8578 
 161   0.0000       0.995876        27.0992 
 162   0.0000       1.006279        27.3822 
 163   0.0000       1.020144        27.7595 
 164   0.0000       1.028345        27.9827 
 165   0.0000       1.033948        28.1352 
 166   0.0000       1.049572        28.5603 
 167   0.0000       1.061030        28.8721 
 168   0.0000       1.065901        29.0046 
 169   0.0000       1.076106        29.2823 
 170   0.0000       1.085466        29.5370 
 171   0.0000       1.097660        29.8688 
 172   0.0000       1.105331        30.0776 
 173   0.0000       1.115309        30.3491 
 174   0.0000       1.120827        30.4992 
 175   0.0000       1.126938        30.6656 
 176   0.0000       1.135691        30.9037 
 177   0.0000       1.150714        31.3125 
 178   0.0000       1.157336        31.4927 
 179   0.0000       1.166980        31.7551 
 180   0.0000       1.171489        31.8778 
 181   0.0000       1.189435        32.3662 
 182   0.0000       1.195058        32.5192 
 183   0.0000       1.200437        32.6656 
 184   0.0000       1.203791        32.7568 
 185   0.0000       1.220506        33.2117 
 186   0.0000       1.227242        33.3949 
 187   0.0000       1.237504        33.6742 
 188   0.0000       1.253639        34.1133 
 189   0.0000       1.259965        34.2854 
 190   0.0000       1.268109        34.5070 
 191   0.0000       1.272797        34.6346 
 192   0.0000       1.285645        34.9842 
 193   0.0000       1.287840        35.0439 
 194   0.0000       1.300363        35.3847 
 195   0.0000       1.311947        35.6999 
 196   0.0000       1.324346        36.0373 
 197   0.0000       1.337208        36.3873 
 198   0.0000       1.342811        36.5397 
 199   0.0000       1.352082        36.7920 
 200   0.0000       1.369100        37.2551 
 201   0.0000       1.370738        37.2997 
 202   0.0000       1.385773        37.7088 
 203   0.0000       1.392328        37.8872 
 204   0.0000       1.404490        38.2181 
 205   0.0000       1.410307        38.3764 
 206   0.0000       1.422478        38.7076 
 207   0.0000       1.438007        39.1302 
 208   0.0000       1.438763        39.1507 
 209   0.0000       1.451753        39.5042 
 210   0.0000       1.453910        39.5629 
 211   0.0000       1.469093        39.9761 
 212   0.0000       1.481762        40.3208 
 213   0.0000       1.489952        40.5437 
 214   0.0000       1.492401        40.6103 
 215   0.0000       1.502118        40.8747 
 216   0.0000       1.510601        41.1055 
 217   0.0000       1.522457        41.4282 
 218   0.0000       1.533558        41.7302 
 219   0.0000       1.544490        42.0277 
 220   0.0000       1.548302        42.1314 
 221   0.0000       1.553459        42.2718 
 222   0.0000       1.558906        42.4200 
 223   0.0000       1.565743        42.6060 
 224   0.0000       1.574230        42.8370 
 225   0.0000       1.595089        43.4046 
 226   0.0000       1.598959        43.5099 
 227   0.0000       1.605403        43.6852 
 228   0.0000       1.626861        44.2691 
 229   0.0000       1.642829        44.7037 
 230   0.0000       1.653146        44.9844 
 231   0.0000       1.673677        45.5431 
 232   0.0000       1.680819        45.7374 
 233   0.0000       1.692434        46.0535 
 234   0.0000       1.699753        46.2526 
 235   0.0000       1.712114        46.5890 
 236   0.0000       1.719139        46.7802 
 237   0.0000       1.731857        47.1262 
 238   0.0000       1.754941        47.7544 
 239   0.0000       1.763617        47.9904 
 240   0.0000       1.767174        48.0873 
 241   0.0000       1.789019        48.6817 
 242   0.0000       1.796938        48.8972 
 243   0.0000       1.821019        49.5525 
 244   0.0000       1.824017        49.6340 
 245   0.0000       1.840431        50.0807 
 246   0.0000       1.849594        50.3300 
 247   0.0000       1.858791        50.5803 
 248   0.0000       1.861224        50.6465 
 249   0.0000       1.887332        51.3569 
 250   0.0000       1.896882        51.6168 
 251   0.0000       1.909668        51.9647 
 252   0.0000       1.928097        52.4662 
 253   0.0000       1.955339        53.2075 
 254   0.0000       1.965592        53.4865 
 255   0.0000       1.982728        53.9528 
 256   0.0000       2.013754        54.7970 
 257   0.0000       2.037226        55.4357 
 258   0.0000       2.047382        55.7121 
 259   0.0000       2.067804        56.2678 
 260   0.0000       2.077684        56.5367 
 261   0.0000       2.098761        57.1102 
 262   0.0000       2.112402        57.4814 
 263   0.0000       2.133117        58.0451 
 264   0.0000       2.158325        58.7310 
 265   0.0000       2.170320        59.0574 
 266   0.0000       2.178840        59.2893 
 267   0.0000       2.200475        59.8780 
 268   0.0000       2.205682        60.0196 
 269   0.0000       2.215187        60.2783 
 270   0.0000       2.240495        60.9670 
 271   0.0000       2.244512        61.0763 
 272   0.0000       2.270587        61.7858 
 273   0.0000       2.289632        62.3041 
 274   0.0000       2.294850        62.4460 
 275   0.0000       2.309766        62.8519 
 276   0.0000       2.321929        63.1829 
 277   0.0000       2.347926        63.8903 
 278   0.0000       2.354236        64.0620 
 279   0.0000       2.367079        64.4115 
 280   0.0000       2.394010        65.1443 
 281   0.0000       2.403528        65.4033 
 282   0.0000       2.417030        65.7707 
 283   0.0000       2.430596        66.1399 
 284   0.0000       2.455842        66.8269 
 285   0.0000       2.470997        67.2392 
 286   0.0000       2.481897        67.5359 
 287   0.0000       2.501652        68.0734 
 288   0.0000       2.516467        68.4766 
 289   0.0000       2.539937        69.1152 
 290   0.0000       2.566965        69.8507 
 291   0.0000       2.569283        69.9137 
 292   0.0000       2.597565        70.6833 
 293   0.0000       2.608125        70.9707 
 294   0.0000       2.622109        71.3512 
 295   0.0000       2.636313        71.7377 
 296   0.0000       2.640535        71.8526 
 297   0.0000       2.655967        72.2725 
 298   0.0000       2.665748        72.5387 
 299   0.0000       2.681849        72.9768 
 300   0.0000       2.687390        73.1276 
 301   0.0000       2.694713        73.3269 
 302   0.0000       2.706753        73.6545 
 303   0.0000       2.710332        73.7519 
 304   0.0000       2.733057        74.3703 
 305   0.0000       2.743609        74.6574 
 306   0.0000       2.751626        74.8756 
 307   0.0000       2.754368        74.9502 
 308   0.0000       2.782263        75.7092 
 309   0.0000       2.795274        76.0633 
 310   0.0000       2.800595        76.2081 
 311   0.0000       2.822863        76.8140 
 312   0.0000       2.826753        76.9198 
 313   0.0000       2.851653        77.5974 
 314   0.0000       2.853015        77.6345 
 315   0.0000       2.863471        77.9190 
 316   0.0000       2.877229        78.2934 
 317   0.0000       2.892531        78.7098 
 318   0.0000       2.907021        79.1041 
 319   0.0000       2.911697        79.2313 
 320   0.0000       2.923875        79.5627 
 321   0.0000       2.931219        79.7625 
 322   0.0000       2.942627        80.0730 
 323   0.0000       2.950006        80.2738 
 324   0.0000       2.953006        80.3554 
 325   0.0000       2.957200        80.4695 
 326   0.0000       2.982032        81.1452 
 327   0.0000       2.986818        81.2755 
 328   0.0000       3.000798        81.6559 
 329   0.0000       3.023295        82.2680 
 330   0.0000       3.032858        82.5283 
 331   0.0000       3.038649        82.6859 
 332   0.0000       3.048364        82.9502 
 333   0.0000       3.061653        83.3118 
 334   0.0000       3.077489        83.7427 
 335   0.0000       3.084058        83.9215 
 336   0.0000       3.099374        84.3382 
 337   0.0000       3.116821        84.8130 
 338   0.0000       3.119819        84.8946 
 339   0.0000       3.126391        85.0734 
 340   0.0000       3.135071        85.3096 
 341   0.0000       3.144591        85.5687 
 342   0.0000       3.155850        85.8750 
 343   0.0000       3.174290        86.3768 
 344   0.0000       3.179295        86.5130 
 345   0.0000       3.183218        86.6198 
 346   0.0000       3.186835        86.7182 
 347   0.0000       3.198057        87.0236 
 348   0.0000       3.201700        87.1227 
 349   0.0000       3.205461        87.2250 
 350   0.0000       3.216060        87.5134 
 351   0.0000       3.231227        87.9262 
 352   0.0000       3.243440        88.2585 
 353   0.0000       3.245847        88.3240 
 354   0.0000       3.250844        88.4600 
 355   0.0000       3.260884        88.7332 
 356   0.0000       3.265965        88.8714 
 357   0.0000       3.274206        89.0957 
 358   0.0000       3.291998        89.5798 
 359   0.0000       3.298080        89.7453 
 360   0.0000       3.302895        89.8763 
 361   0.0000       3.313718        90.1709 
 362   0.0000       3.319708        90.3339 
 363   0.0000       3.335140        90.7538 
 364   0.0000       3.343239        90.9742 
 365   0.0000       3.352880        91.2365 
 366   0.0000       3.361842        91.4804 
 367   0.0000       3.377528        91.9072 
 368   0.0000       3.381163        92.0061 
 369   0.0000       3.385935        92.1360 
 370   0.0000       3.398635        92.4816 
 371   0.0000       3.405827        92.6773 
 372   0.0000       3.420308        93.0713 
 373   0.0000       3.427239        93.2599 
 374   0.0000       3.444808        93.7380 
 375   0.0000       3.450561        93.8945 
 376   0.0000       3.456559        94.0578 
 377   0.0000       3.467129        94.3454 
 378   0.0000       3.482340        94.7593 
 379   0.0000       3.492341        95.0314 
 380   0.0000       3.503793        95.3431 
 381   0.0000       3.520172        95.7887 
 382   0.0000       3.526681        95.9659 
 383   0.0000       3.535323        96.2010 
 384   0.0000       3.546195        96.4969 
 385   0.0000       3.550255        96.6074 
 386   0.0000       3.568981        97.1169 
 387   0.0000       3.571828        97.1944 
 388   0.0000       3.582045        97.4724 
 389   0.0000       3.594580        97.8135 
 390   0.0000       3.602930        98.0407 
 391   0.0000       3.609947        98.2316 
 392   0.0000       3.623342        98.5961 
 393   0.0000       3.635957        98.9394 
 394   0.0000       3.645467        99.1982 
 395   0.0000       3.656906        99.5095 
 396   0.0000       3.663586        99.6912 
 397   0.0000       3.685455       100.2863 
 398   0.0000       3.696970       100.5997 
 399   0.0000       3.703066       100.7655 
 400   0.0000       3.716647       101.1351 
 401   0.0000       3.723317       101.3166 
 402   0.0000       3.734310       101.6157 
 403   0.0000       3.745384       101.9171 
 404   0.0000       3.747788       101.9825 
 405   0.0000       3.767425       102.5168 
 406   0.0000       3.776295       102.7582 
 407   0.0000       3.794679       103.2585 
 408   0.0000       3.805679       103.5578 
 409   0.0000       3.809020       103.6487 
 410   0.0000       3.814851       103.8074 
 411   0.0000       3.830826       104.2421 
 412   0.0000       3.836094       104.3854 
 413   0.0000       3.847648       104.6998 
 414   0.0000       3.851427       104.8027 
 415   0.0000       3.868478       105.2666 
 416   0.0000       3.885941       105.7418 
 417   0.0000       3.896471       106.0284 
 418   0.0000       3.901557       106.1668 
 419   0.0000       3.908396       106.3529 
 420   0.0000       3.920704       106.6878 
 421   0.0000       3.931804       106.9898 
 422   0.0000       3.934855       107.0728 
 423   0.0000       3.956268       107.6555 
 424   0.0000       3.965608       107.9097 
 425   0.0000       3.972050       108.0850 
 426   0.0000       3.975923       108.1904 
 427   0.0000       3.987503       108.5055 
 428   0.0000       3.997150       108.7680 
 429   0.0000       4.009865       109.1140 
 430   0.0000       4.017333       109.3172 
 431   0.0000       4.026671       109.5713 
 432   0.0000       4.040084       109.9363 
 433   0.0000       4.052586       110.2765 
 434   0.0000       4.060795       110.4998 
 435   0.0000       4.067334       110.6778 
 436   0.0000       4.087850       111.2361 
 437   0.0000       4.089662       111.2854 
 438   0.0000       4.104733       111.6955 
 439   0.0000       4.124844       112.2427 
 440   0.0000       4.126505       112.2879 
 441   0.0000       4.131724       112.4299 
 442   0.0000       4.145434       112.8030 
 443   0.0000       4.160144       113.2033 
 444   0.0000       4.173449       113.5653 
 445   0.0000       4.183026       113.8259 
 446   0.0000       4.186838       113.9296 
 447   0.0000       4.198543       114.2482 
 448   0.0000       4.216800       114.7450 
 449   0.0000       4.220579       114.8478 
 450   0.0000       4.223263       114.9208 
 451   0.0000       4.231954       115.1573 
 452   0.0000       4.235918       115.2652 
 453   0.0000       4.265634       116.0738 
 454   0.0000       4.274238       116.3079 
 455   0.0000       4.275332       116.3377 
 456   0.0000       4.281909       116.5167 
 457   0.0000       4.292219       116.7972 
 458   0.0000       4.304441       117.1298 
 459   0.0000       4.312950       117.3613 
 460   0.0000       4.319191       117.5311 
 461   0.0000       4.322580       117.6234 
 462   0.0000       4.345655       118.2513 
 463   0.0000       4.353835       118.4739 
 464   0.0000       4.369288       118.8944 
 465   0.0000       4.397480       119.6615 
 466   0.0000       4.401203       119.7628 
 467   0.0000       4.408422       119.9593 
 468   0.0000       4.425750       120.4308 
 469   0.0000       4.434295       120.6633 
 470   0.0000       4.443705       120.9194 
 471   0.0000       4.460099       121.3655 
 472   0.0000       4.480881       121.9310 
 473   0.0000       4.485658       122.0610 
 474   0.0000       4.503887       122.5570 
 475   0.0000       4.518413       122.9523 
 476   0.0000       4.521842       123.0456 
 477   0.0000       4.539856       123.5358 
 478   0.0000       4.552642       123.8837 
 479   0.0000       4.572187       124.4155 
 480   0.0000       4.582568       124.6980 
 481   0.0000       4.584063       124.7387 
 482   0.0000       4.623084       125.8005 
 483   0.0000       4.633116       126.0735 
 484   0.0000       4.663295       126.8947 
 485   0.0000       4.685373       127.4955 
 486   0.0000       4.690500       127.6350 
 487   0.0000       4.698847       127.8621 
 488   0.0000       4.714722       128.2941 
 489   0.0000       4.747478       129.1854 
 490   0.0000       4.758192       129.4770 
 491   0.0000       4.768830       129.7665 
 492   0.0000       4.780991       130.0974 
 493   0.0000       4.801622       130.6588 
 494   0.0000       4.813592       130.9845 
 495   0.0000       4.826898       131.3466 
 496   0.0000       4.841463       131.7429 
 497   0.0000       4.844176       131.8167 
 498   0.0000       4.869357       132.5019 
 499   0.0000       4.877255       132.7168 
 500   0.0000       4.887495       132.9955 
 501   0.0000       4.907220       133.5322 
 502   0.0000       4.931069       134.1812 
 503   0.0000       4.944463       134.5457 
 504   0.0000       4.953734       134.7980 
 505   0.0000       4.964149       135.0814 
 506   0.0000       4.971548       135.2827 
 507   0.0000       4.990693       135.8037 
 508   0.0000       5.006157       136.2245 
 509   0.0000       5.017658       136.5374 
 510   0.0000       5.019860       136.5973 
 511   0.0000       5.033627       136.9720 
 512   0.0000       5.046003       137.3087 
 513   0.0000       5.060950       137.7155 
 514   0.0000       5.076077       138.1271 
 515   0.0000       5.094380       138.6251 
 516   0.0000       5.100091       138.7805 
 517   0.0000       5.123374       139.4141 
 518   0.0000       5.133118       139.6793 
 519   0.0000       5.169467       140.6683 
 520   0.0000       5.177735       140.8933 
 521   0.0000       5.194544       141.3507 
 522   0.0000       5.215419       141.9188 
 523   0.0000       5.231150       142.3468 
 524   0.0000       5.255794       143.0174 
 525   0.0000       5.257277       143.0578 
 526   0.0000       5.275769       143.5610 
 527   0.0000       5.294754       144.0776 
 528   0.0000       5.310738       144.5125 
 529   0.0000       5.320662       144.7826 
 530   0.0000       5.331113       145.0670 
 531   0.0000       5.335382       145.1831 
 532   0.0000       5.343716       145.4099 
 533   0.0000       5.365411       146.0003 
 534   0.0000       5.382116       146.4548 
 535   0.0000       5.412815       147.2902 
 536   0.0000       5.424323       147.6033 
 537   0.0000       5.432598       147.8285 
 538   0.0000       5.468044       148.7930 
 539   0.0000       5.488757       149.3567 
 540   0.0000       5.508340       149.8895 
 541   0.0000       5.521121       150.2373 
 542   0.0000       5.543371       150.8428 
 543   0.0000       5.557888       151.2378 
 544   0.0000       5.573590       151.6651 
 545   0.0000       5.576962       151.7568 
 546   0.0000       5.582759       151.9146 
 547   0.0000       5.629451       153.1852 
 548   0.0000       5.640920       153.4972 
 549   0.0000       5.665001       154.1525 
 550   0.0000       5.697735       155.0433 
 551   0.0000       5.708600       155.3389 
 552   0.0000       5.719841       155.6448 
 553   0.0000       5.734407       156.0411 
 554   0.0000       5.739498       156.1797 
 555   0.0000       5.771206       157.0425 
 556   0.0000       5.785457       157.4303 
 557   0.0000       5.807410       158.0277 
 558   0.0000       5.832380       158.7071 
 559   0.0000       5.844110       159.0263 
 560   0.0000       5.892897       160.3539 
 561   0.0000       5.910844       160.8422 
 562   0.0000       5.968385       162.4080 
 563   0.0000       6.023395       163.9049 
 564   0.0000       6.105441       166.1375 
 565   0.0000       6.277229       170.8121 
 566   0.0000       6.300885       171.4558 
 567   0.0000       6.437032       175.1605 
 568   0.0000       6.479894       176.3269 
 569   0.0000       6.517293       177.3446 
 570   0.0000       6.540670       177.9807 
 571   0.0000       6.544088       178.0737 
 572   0.0000       6.603064       179.6785 
 573   0.0000       6.645007       180.8198 
 574   0.0000       6.714172       182.7019 
 575   0.0000       6.727082       183.0532 
 576   0.0000       6.808116       185.2583 
 577   0.0000       6.939410       188.8310 
 578   0.0000       6.948484       189.0779 
 579   0.0000       6.976122       189.8299 
 580   0.0000       7.050683       191.8588 
 581   0.0000       7.130476       194.0301 
 582   0.0000       7.185941       195.5394 
 583   0.0000       7.192187       195.7093 
 584   0.0000       7.223597       196.5641 
 585   0.0000       7.225056       196.6038 
 586   0.0000       7.493841       203.9178 
 587   0.0000       7.518617       204.5920 
 588   0.0000      23.095857       628.4702 
 589   0.0000      23.260405       632.9478 
 590   0.0000      23.443641       637.9339 
 591   0.0000      23.471473       638.6913 
 592   0.0000      23.532233       640.3446 
 593   0.0000      23.574122       641.4845 
 594   0.0000      23.617816       642.6734 
 595   0.0000      23.707391       645.1109 
 596   0.0000      23.725339       645.5993 
 597   0.0000      23.750582       646.2862 
 598   0.0000      23.829807       648.4420 
 599   0.0000      44.393947      1208.0207 
 600   0.0000      44.408126      1208.4065 
 601   0.0000      44.898896      1221.7611 
Total SCF time: 0 days 0 hours 1 min 56 sec 

Maximum memory used throughout the entire SCF-calculation: 120.9 MB

-------------------------   --------------------
FINAL SINGLE POINT ENERGY      -652.094349902320
-------------------------   --------------------


                            ***************************************
                            *     ORCA property calculations      *
                            ***************************************

                                    ---------------------
                                    Active property flags
                                    ---------------------
   (+) Dipole Moment


------------------------------------------------------------------------------
                       ORCA ELECTRIC PROPERTIES CALCULATION
------------------------------------------------------------------------------

Dipole Moment Calculation                       ... on
Quadrupole Moment Calculation                   ... off
Polarizability Calculation                      ... off
GBWName                                         ... conf_003_SP.gbw
Electron density                                ... conf_003_SP.scfp
The origin for moment calculation is the CENTER OF MASS  = (-0.079586, -0.042519  0.000289)

-------------
DIPOLE MOMENT
-------------
                                X             Y             Z
Electronic contribution:     -6.50414      -3.07422       0.73381
Nuclear contribution   :      8.11775       4.33690      -0.02946
                        -----------------------------------------
Total Dipole Moment    :      1.61362       1.26269       0.70435
                        -----------------------------------------
Magnitude (a.u.)       :      2.16662
Magnitude (Debye)      :      5.50711



--------------------
Rotational spectrum 
--------------------
 
Rotational constants in cm-1:     0.037458     0.021850     0.017714 
Rotational constants in MHz :  1122.969168   655.048306   531.051751 

 Dipole components along the rotational axes: 
x,y,z [a.u.] :     1.537273     1.363152     0.687644 
x,y,z [Debye]:     3.907437     3.464856     1.747852 

 

Timings for individual modules:

Sum of individual times         ...      121.796 sec (=   2.030 min)
GTO integral calculation        ...        3.284 sec (=   0.055 min)   2.7 %
SCF iterations                  ...      118.512 sec (=   1.975 min)  97.3 %
                             ****ORCA TERMINATED NORMALLY****
TOTAL RUN TIME: 0 days 0 hours 2 minutes 6 seconds 358 msec
