 Entering Gaussian System, Link 0=g16
 Initial command:
 /root/g16/l1.exe "/tmp/gaussian_scratch_3339675/Gau-3339680.inp" -scrdir="/tmp/gaussian_scratch_3339675/"
 Entering Link 1 = /root/g16/l1.exe PID=   3339682.
  
 Copyright (c) 1988,1990,1992,1993,1995,1998,2003,2009,2016,
            Gaussian, Inc.  All Rights Reserved.
  
 This is part of the Gaussian(R) 16 program.  It is based on
 the Gaussian(R) 09 system (copyright 2009, Gaussian, Inc.),
 the Gaussian(R) 03 system (copyright 2003, Gaussian, Inc.),
 the Gaussian(R) 98 system (copyright 1998, Gaussian, Inc.),
 the Gaussian(R) 94 system (copyright 1995, Gaussian, Inc.),
 the Gaussian 92(TM) system (copyright 1992, Gaussian, Inc.),
 the Gaussian 90(TM) system (copyright 1990, Gaussian, Inc.),
 the Gaussian 88(TM) system (copyright 1988, Gaussian, Inc.),
 the Gaussian 86(TM) system (copyright 1986, Carnegie Mellon
 University), and the Gaussian 82(TM) system (copyright 1983,
 Carnegie Mellon University). Gaussian is a federally registered
 trademark of Gaussian, Inc.
  
 This software contains proprietary and confidential information,
 including trade secrets, belonging to Gaussian, Inc.
  
 This software is provided under written license and may be
 used, copied, transmitted, or stored only in accord with that
 written license.
  
 The following legend is applicable only to US Government
 contracts under FAR:
  
                    RESTRICTED RIGHTS LEGEND
  
 Use, reproduction and disclosure by the US Government is
 subject to restrictions as set forth in subparagraphs (a)
 and (c) of the Commercial Computer Software - Restricted
 Rights clause in FAR 52.227-19.
  
 Gaussian, Inc.
 340 Quinnipiac St., Bldg. 40, Wallingford CT 06492
  
  
 ---------------------------------------------------------------
 Warning -- This program may not be used in any manner that
 competes with the business of Gaussian, Inc. or will provide
 assistance to any competitor of Gaussian, Inc.  The licensee
 of this program is prohibited from giving any competitor of
 Gaussian, Inc. access to this program.  By using this program,
 the user acknowledges that Gaussian, Inc. is engaged in the
 business of creating and licensing software in the field of
 computational chemistry and represents and warrants to the
 licensee that it is not a competitor of Gaussian, Inc. and that
 it will not use this program in any manner prohibited above.
 ---------------------------------------------------------------
  

 Cite this work as:
 Gaussian 16, Revision A.03,
 M. J. Frisch, G. W. Trucks, H. B. Schlegel, G. E. Scuseria, 
 M. A. Robb, J. R. Cheeseman, G. Scalmani, V. Barone, 
 G. A. Petersson, H. Nakatsuji, X. Li, M. Caricato, A. V. Marenich, 
 J. Bloino, B. G. Janesko, R. Gomperts, B. Mennucci, H. P. Hratchian, 
 J. V. Ortiz, A. F. Izmaylov, J. L. Sonnenberg, D. Williams-Young, 
 F. Ding, F. Lipparini, F. Egidi, J. Goings, B. Peng, A. Petrone, 
 T. Henderson, D. Ranasinghe, V. G. Zakrzewski, J. Gao, N. Rega, 
 G. Zheng, W. Liang, M. Hada, M. Ehara, K. Toyota, R. Fukuda, 
 J. Hasegawa, M. Ishida, T. Nakajima, Y. Honda, O. Kitao, H. Nakai, 
 T. Vreven, K. Throssell, J. A. Montgomery, Jr., J. E. Peralta, 
 F. Ogliaro, M. J. Bearpark, J. J. Heyd, E. N. Brothers, K. N. Kudin, 
 V. N. Staroverov, T. A. Keith, R. Kobayashi, J. Normand, 
 K. Raghavachari, A. P. Rendell, J. C. Burant, S. S. Iyengar, 
 J. Tomasi, M. Cossi, J. M. Millam, M. Klene, C. Adamo, R. Cammi, 
 J. W. Ochterski, R. L. Martin, K. Morokuma, O. Farkas, 
 J. B. Foresman, and D. J. Fox, Gaussian, Inc., Wallingford CT, 2016.
 
 ******************************************
 Gaussian 16:  ES64L-G16RevA.03 25-Dec-2016
                20-Jan-2026 
 ******************************************
 %chk=conf_003.chk
 %mem=32GB
 %nprocshared=16
 Will use up to   16 processors via shared memory.
 --------------------------------------------------------------------
 #p B3LYP/def2SVP em=GD3BJ SCRF=(PCM,Solvent=Acetone) Opt=CalcFC Freq
 --------------------------------------------------------------------
 1/10=4,18=20,19=15,26=3,38=1/1,3;
 2/9=110,12=2,17=6,18=5,40=1/2;
 3/5=43,7=101,11=2,25=1,30=1,70=2201,71=2,72=19,74=-5,124=41,140=1/1,2,3;
 4//1;
 5/5=2,38=5,53=19/2;
 8/6=4,10=90,11=11/1;
 11/6=1,8=1,9=11,15=111,16=1/1,2,10;
 10/6=1,13=1/2;
 6/7=2,8=2,9=2,10=2,28=1/1;
 7/10=1,18=20,25=1/1,2,3,16;
 1/10=4,18=20,19=15,26=3/3(2);
 2/9=110/2;
 99//99;
 2/9=110/2;
 3/5=43,7=101,11=2,25=1,30=1,70=2205,71=1,72=19,74=-5,124=41/1,2,3;
 4/5=5,16=3,69=1/1;
 5/5=2,38=5,53=19/2;
 7//1,2,3,16;
 1/18=20,19=15,26=3/3(-5);
 2/9=110/2;
 6/7=2,8=2,9=2,10=2,19=2,28=1/1;
 99/9=1/99;
 Leave Link    1 at Tue Jan 20 11:30:26 2026, MaxMem=  4294967296 cpu:               0.4 elap:               0.0
 (Enter /root/g16/l101.exe)
 ----------------
 product_conf_003
 ----------------
 Symbolic Z-matrix:
 Charge =  0 Multiplicity = 1
 O                     2.9037    0.98821   1.36173 
 C                     2.01442   0.75896   0.5654 
 C                     0.79207   1.54805   0.44334 
 C                    -0.17778   1.16619  -0.40256 
 C                    -1.56984   1.70012  -0.37447 
 C                    -2.37128   1.0388    0.77507 
 C                    -1.7779   -0.29563   1.26393 
 C                    -1.5992   -1.27273   0.12574 
 O                    -2.50478  -1.97936  -0.25242 
 C                    -0.25843  -1.31907  -0.58325 
 C                     1.01118  -1.51837   0.26186 
 C                     2.00274  -0.47363  -0.33612 
 O                     1.46189  -0.12257  -1.5925 
 C                     0.08851   0.01017  -1.3258 
 H                     0.67635   2.39099   1.10895 
 H                    -1.55695   2.77978  -0.22493 
 H                    -2.05873   1.49011  -1.32647 
 H                    -3.39412   0.86971   0.43885 
 H                    -2.4035    1.71017   1.6333 
 H                    -2.4825   -0.73472   1.97297 
 H                    -0.83407  -0.10898   1.77287 
 H                    -0.32158  -2.10834  -1.33804 
 H                     0.8533   -1.33957   1.32459 
 H                     1.40202  -2.52626   0.1407 
 H                     3.01124  -0.86279  -0.48017 
 H                    -0.43729   0.11679  -2.27577 
 
 ITRead=  0  0  0  0  0  0  0  0  0  0  0  0  0  0  0  0  0  0  0  0
 ITRead=  0  0  0  0  0  0
 MicOpt= -1 -1 -1 -1 -1 -1 -1 -1 -1 -1 -1 -1 -1 -1 -1 -1 -1 -1 -1 -1
 MicOpt= -1 -1 -1 -1 -1 -1
 NAtoms=     26 NQM=       26 NQMF=       0 NMMI=      0 NMMIF=      0
                NMic=       0 NMicF=      0.
                    Isotopes and Nuclear Properties:
 (Nuclear quadrupole moments (NQMom) in fm**2, nuclear magnetic moments (NMagM)
  in nuclear magnetons)

  Atom         1           2           3           4           5           6           7           8           9          10
 IAtWgt=          16          12          12          12          12          12          12          12          16          12
 AtmWgt=  15.9949146  12.0000000  12.0000000  12.0000000  12.0000000  12.0000000  12.0000000  12.0000000  15.9949146  12.0000000
 NucSpn=           0           0           0           0           0           0           0           0           0           0
 AtZEff=  -0.0000000  -0.0000000  -0.0000000  -0.0000000  -0.0000000  -0.0000000  -0.0000000  -0.0000000  -0.0000000  -0.0000000
 NQMom=    0.0000000   0.0000000   0.0000000   0.0000000   0.0000000   0.0000000   0.0000000   0.0000000   0.0000000   0.0000000
 NMagM=    0.0000000   0.0000000   0.0000000   0.0000000   0.0000000   0.0000000   0.0000000   0.0000000   0.0000000   0.0000000
 AtZNuc=   8.0000000   6.0000000   6.0000000   6.0000000   6.0000000   6.0000000   6.0000000   6.0000000   8.0000000   6.0000000

  Atom        11          12          13          14          15          16          17          18          19          20
 IAtWgt=          12          12          16          12           1           1           1           1           1           1
 AtmWgt=  12.0000000  12.0000000  15.9949146  12.0000000   1.0078250   1.0078250   1.0078250   1.0078250   1.0078250   1.0078250
 NucSpn=           0           0           0           0           1           1           1           1           1           1
 AtZEff=  -0.0000000  -0.0000000  -0.0000000  -0.0000000  -0.0000000  -0.0000000  -0.0000000  -0.0000000  -0.0000000  -0.0000000
 NQMom=    0.0000000   0.0000000   0.0000000   0.0000000   0.0000000   0.0000000   0.0000000   0.0000000   0.0000000   0.0000000
 NMagM=    0.0000000   0.0000000   0.0000000   0.0000000   2.7928460   2.7928460   2.7928460   2.7928460   2.7928460   2.7928460
 AtZNuc=   6.0000000   6.0000000   8.0000000   6.0000000   1.0000000   1.0000000   1.0000000   1.0000000   1.0000000   1.0000000

  Atom        21          22          23          24          25          26
 IAtWgt=           1           1           1           1           1           1
 AtmWgt=   1.0078250   1.0078250   1.0078250   1.0078250   1.0078250   1.0078250
 NucSpn=           1           1           1           1           1           1
 AtZEff=  -0.0000000  -0.0000000  -0.0000000  -0.0000000  -0.0000000  -0.0000000
 NQMom=    0.0000000   0.0000000   0.0000000   0.0000000   0.0000000   0.0000000
 NMagM=    2.7928460   2.7928460   2.7928460   2.7928460   2.7928460   2.7928460
 AtZNuc=   1.0000000   1.0000000   1.0000000   1.0000000   1.0000000   1.0000000
 Leave Link  101 at Tue Jan 20 11:30:27 2026, MaxMem=  4294967296 cpu:               5.7 elap:               0.4
 (Enter /root/g16/l103.exe)

 GradGradGradGradGradGradGradGradGradGradGradGradGradGradGradGradGradGrad
 Berny optimization.
 Initialization pass.
                           ----------------------------
                           !    Initial Parameters    !
                           ! (Angstroms and Degrees)  !
 --------------------------                            --------------------------
 ! Name  Definition              Value          Derivative Info.                !
 --------------------------------------------------------------------------------
 ! R1    R(1,2)                  1.2155         calculate D2E/DX2 analytically  !
 ! R2    R(2,3)                  1.46           calculate D2E/DX2 analytically  !
 ! R3    R(2,12)                 1.5271         calculate D2E/DX2 analytically  !
 ! R4    R(3,4)                  1.3424         calculate D2E/DX2 analytically  !
 ! R5    R(3,15)                 1.0803         calculate D2E/DX2 analytically  !
 ! R6    R(4,5)                  1.4912         calculate D2E/DX2 analytically  !
 ! R7    R(4,14)                 1.5032         calculate D2E/DX2 analytically  !
 ! R8    R(5,6)                  1.5495         calculate D2E/DX2 analytically  !
 ! R9    R(5,16)                 1.09           calculate D2E/DX2 analytically  !
 ! R10   R(5,17)                 1.0906         calculate D2E/DX2 analytically  !
 ! R11   R(6,7)                  1.5401         calculate D2E/DX2 analytically  !
 ! R12   R(6,18)                 1.0899         calculate D2E/DX2 analytically  !
 ! R13   R(6,19)                 1.0901         calculate D2E/DX2 analytically  !
 ! R14   R(7,8)                  1.5107         calculate D2E/DX2 analytically  !
 ! R15   R(7,20)                 1.0918         calculate D2E/DX2 analytically  !
 ! R16   R(7,21)                 1.0884         calculate D2E/DX2 analytically  !
 ! R17   R(8,9)                  1.2093         calculate D2E/DX2 analytically  !
 ! R18   R(8,10)                 1.5174         calculate D2E/DX2 analytically  !
 ! R19   R(10,11)                1.5381         calculate D2E/DX2 analytically  !
 ! R20   R(10,14)                1.5616         calculate D2E/DX2 analytically  !
 ! R21   R(10,22)                1.0939         calculate D2E/DX2 analytically  !
 ! R22   R(11,12)                1.5596         calculate D2E/DX2 analytically  !
 ! R23   R(11,23)                1.0892         calculate D2E/DX2 analytically  !
 ! R24   R(11,24)                1.0878         calculate D2E/DX2 analytically  !
 ! R25   R(12,13)                1.4122         calculate D2E/DX2 analytically  !
 ! R26   R(12,25)                1.0905         calculate D2E/DX2 analytically  !
 ! R27   R(13,14)                1.4053         calculate D2E/DX2 analytically  !
 ! R28   R(14,26)                1.091          calculate D2E/DX2 analytically  !
 ! A1    A(1,2,3)              124.426          calculate D2E/DX2 analytically  !
 ! A2    A(1,2,12)             122.9945         calculate D2E/DX2 analytically  !
 ! A3    A(3,2,12)             112.3623         calculate D2E/DX2 analytically  !
 ! A4    A(2,3,4)              120.2525         calculate D2E/DX2 analytically  !
 ! A5    A(2,3,15)             117.3804         calculate D2E/DX2 analytically  !
 ! A6    A(4,3,15)             122.198          calculate D2E/DX2 analytically  !
 ! A7    A(3,4,5)              124.106          calculate D2E/DX2 analytically  !
 ! A8    A(3,4,14)             118.542          calculate D2E/DX2 analytically  !
 ! A9    A(5,4,14)             116.8907         calculate D2E/DX2 analytically  !
 ! A10   A(4,5,6)              110.1196         calculate D2E/DX2 analytically  !
 ! A11   A(4,5,16)             110.2542         calculate D2E/DX2 analytically  !
 ! A12   A(4,5,17)             109.4555         calculate D2E/DX2 analytically  !
 ! A13   A(6,5,16)             109.0907         calculate D2E/DX2 analytically  !
 ! A14   A(6,5,17)             109.484          calculate D2E/DX2 analytically  !
 ! A15   A(16,5,17)            108.4079         calculate D2E/DX2 analytically  !
 ! A16   A(5,6,7)              113.9544         calculate D2E/DX2 analytically  !
 ! A17   A(5,6,18)             108.8294         calculate D2E/DX2 analytically  !
 ! A18   A(5,6,19)             109.6632         calculate D2E/DX2 analytically  !
 ! A19   A(7,6,18)             108.9711         calculate D2E/DX2 analytically  !
 ! A20   A(7,6,19)             107.1652         calculate D2E/DX2 analytically  !
 ! A21   A(18,6,19)            108.1004         calculate D2E/DX2 analytically  !
 ! A22   A(6,7,8)              111.5219         calculate D2E/DX2 analytically  !
 ! A23   A(6,7,20)             107.817          calculate D2E/DX2 analytically  !
 ! A24   A(6,7,21)             109.5088         calculate D2E/DX2 analytically  !
 ! A25   A(8,7,20)             107.7889         calculate D2E/DX2 analytically  !
 ! A26   A(8,7,21)             111.1391         calculate D2E/DX2 analytically  !
 ! A27   A(20,7,21)            108.9609         calculate D2E/DX2 analytically  !
 ! A28   A(7,8,9)              121.6659         calculate D2E/DX2 analytically  !
 ! A29   A(7,8,10)             118.4446         calculate D2E/DX2 analytically  !
 ! A30   A(9,8,10)             119.8499         calculate D2E/DX2 analytically  !
 ! A31   A(8,10,11)            118.4627         calculate D2E/DX2 analytically  !
 ! A32   A(8,10,14)            113.1095         calculate D2E/DX2 analytically  !
 ! A33   A(8,10,22)            107.0629         calculate D2E/DX2 analytically  !
 ! A34   A(11,10,14)           100.8455         calculate D2E/DX2 analytically  !
 ! A35   A(11,10,22)           109.4673         calculate D2E/DX2 analytically  !
 ! A36   A(14,10,22)           107.3904         calculate D2E/DX2 analytically  !
 ! A37   A(10,11,12)           103.1402         calculate D2E/DX2 analytically  !
 ! A38   A(10,11,23)           113.2769         calculate D2E/DX2 analytically  !
 ! A39   A(10,11,24)           110.8195         calculate D2E/DX2 analytically  !
 ! A40   A(12,11,23)           110.8742         calculate D2E/DX2 analytically  !
 ! A41   A(12,11,24)           110.4592         calculate D2E/DX2 analytically  !
 ! A42   A(23,11,24)           108.2321         calculate D2E/DX2 analytically  !
 ! A43   A(2,12,11)            108.6141         calculate D2E/DX2 analytically  !
 ! A44   A(2,12,13)            109.1162         calculate D2E/DX2 analytically  !
 ! A45   A(2,12,25)            111.0345         calculate D2E/DX2 analytically  !
 ! A46   A(11,12,13)           105.3166         calculate D2E/DX2 analytically  !
 ! A47   A(11,12,25)           113.5506         calculate D2E/DX2 analytically  !
 ! A48   A(13,12,25)           108.9886         calculate D2E/DX2 analytically  !
 ! A49   A(12,13,14)           103.2338         calculate D2E/DX2 analytically  !
 ! A50   A(4,14,10)            108.8563         calculate D2E/DX2 analytically  !
 ! A51   A(4,14,13)            111.2429         calculate D2E/DX2 analytically  !
 ! A52   A(4,14,26)            111.9786         calculate D2E/DX2 analytically  !
 ! A53   A(10,14,13)           103.1181         calculate D2E/DX2 analytically  !
 ! A54   A(10,14,26)           112.9637         calculate D2E/DX2 analytically  !
 ! A55   A(13,14,26)           108.3588         calculate D2E/DX2 analytically  !
 ! D1    D(1,2,3,4)           -175.3978         calculate D2E/DX2 analytically  !
 ! D2    D(1,2,3,15)            -0.0204         calculate D2E/DX2 analytically  !
 ! D3    D(12,2,3,4)            -0.6277         calculate D2E/DX2 analytically  !
 ! D4    D(12,2,3,15)          174.7497         calculate D2E/DX2 analytically  !
 ! D5    D(1,2,12,11)          102.0889         calculate D2E/DX2 analytically  !
 ! D6    D(1,2,12,13)         -143.597          calculate D2E/DX2 analytically  !
 ! D7    D(1,2,12,25)          -23.4486         calculate D2E/DX2 analytically  !
 ! D8    D(3,2,12,11)          -72.7678         calculate D2E/DX2 analytically  !
 ! D9    D(3,2,12,13)           41.5463         calculate D2E/DX2 analytically  !
 ! D10   D(3,2,12,25)          161.6947         calculate D2E/DX2 analytically  !
 ! D11   D(2,3,4,5)            165.0352         calculate D2E/DX2 analytically  !
 ! D12   D(2,3,4,14)            -6.9152         calculate D2E/DX2 analytically  !
 ! D13   D(15,3,4,5)           -10.1136         calculate D2E/DX2 analytically  !
 ! D14   D(15,3,4,14)          177.936          calculate D2E/DX2 analytically  !
 ! D15   D(3,4,5,6)            -77.726          calculate D2E/DX2 analytically  !
 ! D16   D(3,4,5,16)            42.7022         calculate D2E/DX2 analytically  !
 ! D17   D(3,4,5,17)           161.8671         calculate D2E/DX2 analytically  !
 ! D18   D(14,4,5,6)            94.3462         calculate D2E/DX2 analytically  !
 ! D19   D(14,4,5,16)         -145.2256         calculate D2E/DX2 analytically  !
 ! D20   D(14,4,5,17)          -26.0607         calculate D2E/DX2 analytically  !
 ! D21   D(3,4,14,10)           86.4544         calculate D2E/DX2 analytically  !
 ! D22   D(3,4,14,13)          -26.5049         calculate D2E/DX2 analytically  !
 ! D23   D(3,4,14,26)         -147.9246         calculate D2E/DX2 analytically  !
 ! D24   D(5,4,14,10)          -86.0759         calculate D2E/DX2 analytically  !
 ! D25   D(5,4,14,13)          160.9648         calculate D2E/DX2 analytically  !
 ! D26   D(5,4,14,26)           39.5452         calculate D2E/DX2 analytically  !
 ! D27   D(4,5,6,7)            -20.5297         calculate D2E/DX2 analytically  !
 ! D28   D(4,5,6,18)          -142.3557         calculate D2E/DX2 analytically  !
 ! D29   D(4,5,6,19)            99.5824         calculate D2E/DX2 analytically  !
 ! D30   D(16,5,6,7)          -141.6563         calculate D2E/DX2 analytically  !
 ! D31   D(16,5,6,18)           96.5177         calculate D2E/DX2 analytically  !
 ! D32   D(16,5,6,19)          -21.5442         calculate D2E/DX2 analytically  !
 ! D33   D(17,5,6,7)            99.86           calculate D2E/DX2 analytically  !
 ! D34   D(17,5,6,18)          -21.966          calculate D2E/DX2 analytically  !
 ! D35   D(17,5,6,19)         -140.0278         calculate D2E/DX2 analytically  !
 ! D36   D(5,6,7,8)            -54.5551         calculate D2E/DX2 analytically  !
 ! D37   D(5,6,7,20)          -172.6993         calculate D2E/DX2 analytically  !
 ! D38   D(5,6,7,21)            68.8798         calculate D2E/DX2 analytically  !
 ! D39   D(18,6,7,8)            67.1927         calculate D2E/DX2 analytically  !
 ! D40   D(18,6,7,20)          -50.9516         calculate D2E/DX2 analytically  !
 ! D41   D(18,6,7,21)         -169.3725         calculate D2E/DX2 analytically  !
 ! D42   D(19,6,7,8)          -176.0619         calculate D2E/DX2 analytically  !
 ! D43   D(19,6,7,20)           65.7938         calculate D2E/DX2 analytically  !
 ! D44   D(19,6,7,21)          -52.6271         calculate D2E/DX2 analytically  !
 ! D45   D(6,7,8,9)            -84.6319         calculate D2E/DX2 analytically  !
 ! D46   D(6,7,8,10)            93.0734         calculate D2E/DX2 analytically  !
 ! D47   D(20,7,8,9)            33.5292         calculate D2E/DX2 analytically  !
 ! D48   D(20,7,8,10)         -148.7654         calculate D2E/DX2 analytically  !
 ! D49   D(21,7,8,9)           152.8642         calculate D2E/DX2 analytically  !
 ! D50   D(21,7,8,10)          -29.4305         calculate D2E/DX2 analytically  !
 ! D51   D(7,8,10,11)           53.5257         calculate D2E/DX2 analytically  !
 ! D52   D(7,8,10,14)          -64.1226         calculate D2E/DX2 analytically  !
 ! D53   D(7,8,10,22)          177.7848         calculate D2E/DX2 analytically  !
 ! D54   D(9,8,10,11)         -128.7261         calculate D2E/DX2 analytically  !
 ! D55   D(9,8,10,14)          113.6256         calculate D2E/DX2 analytically  !
 ! D56   D(9,8,10,22)           -4.467          calculate D2E/DX2 analytically  !
 ! D57   D(8,10,11,12)        -135.6454         calculate D2E/DX2 analytically  !
 ! D58   D(8,10,11,23)         -15.7283         calculate D2E/DX2 analytically  !
 ! D59   D(8,10,11,24)         106.1396         calculate D2E/DX2 analytically  !
 ! D60   D(14,10,11,12)        -11.6978         calculate D2E/DX2 analytically  !
 ! D61   D(14,10,11,23)        108.2192         calculate D2E/DX2 analytically  !
 ! D62   D(14,10,11,24)       -129.9129         calculate D2E/DX2 analytically  !
 ! D63   D(22,10,11,12)        101.2871         calculate D2E/DX2 analytically  !
 ! D64   D(22,10,11,23)       -138.7958         calculate D2E/DX2 analytically  !
 ! D65   D(22,10,11,24)        -16.9279         calculate D2E/DX2 analytically  !
 ! D66   D(8,10,14,4)           46.9798         calculate D2E/DX2 analytically  !
 ! D67   D(8,10,14,13)         165.1907         calculate D2E/DX2 analytically  !
 ! D68   D(8,10,14,26)         -78.0665         calculate D2E/DX2 analytically  !
 ! D69   D(11,10,14,4)         -80.5624         calculate D2E/DX2 analytically  !
 ! D70   D(11,10,14,13)         37.6485         calculate D2E/DX2 analytically  !
 ! D71   D(11,10,14,26)        154.3913         calculate D2E/DX2 analytically  !
 ! D72   D(22,10,14,4)         164.8814         calculate D2E/DX2 analytically  !
 ! D73   D(22,10,14,13)        -76.9077         calculate D2E/DX2 analytically  !
 ! D74   D(22,10,14,26)         39.8351         calculate D2E/DX2 analytically  !
 ! D75   D(10,11,12,2)          99.5756         calculate D2E/DX2 analytically  !
 ! D76   D(10,11,12,13)        -17.2022         calculate D2E/DX2 analytically  !
 ! D77   D(10,11,12,25)       -136.3715         calculate D2E/DX2 analytically  !
 ! D78   D(23,11,12,2)         -21.9803         calculate D2E/DX2 analytically  !
 ! D79   D(23,11,12,13)       -138.7582         calculate D2E/DX2 analytically  !
 ! D80   D(23,11,12,25)        102.0725         calculate D2E/DX2 analytically  !
 ! D81   D(24,11,12,2)        -141.9577         calculate D2E/DX2 analytically  !
 ! D82   D(24,11,12,13)        101.2644         calculate D2E/DX2 analytically  !
 ! D83   D(24,11,12,25)        -17.9048         calculate D2E/DX2 analytically  !
 ! D84   D(2,12,13,14)         -73.8541         calculate D2E/DX2 analytically  !
 ! D85   D(11,12,13,14)         42.5813         calculate D2E/DX2 analytically  !
 ! D86   D(25,12,13,14)        164.7463         calculate D2E/DX2 analytically  !
 ! D87   D(12,13,14,4)          65.9096         calculate D2E/DX2 analytically  !
 ! D88   D(12,13,14,10)        -50.6187         calculate D2E/DX2 analytically  !
 ! D89   D(12,13,14,26)       -170.5805         calculate D2E/DX2 analytically  !
 --------------------------------------------------------------------------------
 Trust Radius=3.00D-01 FncErr=1.00D-07 GrdErr=1.00D-06 EigMax=2.50D+02 EigMin=1.00D-04
 Number of steps in this run=    156 maximum allowed number of steps=    156.
 GradGradGradGradGradGradGradGradGradGradGradGradGradGradGradGradGradGrad

 Leave Link  103 at Tue Jan 20 11:30:27 2026, MaxMem=  4294967296 cpu:               0.4 elap:               0.0
 (Enter /root/g16/l202.exe)
                          Input orientation:                          
 ---------------------------------------------------------------------
 Center     Atomic      Atomic             Coordinates (Angstroms)
 Number     Number       Type             X           Y           Z
 ---------------------------------------------------------------------
      1          8           0        2.903699    0.988207    1.361733
      2          6           0        2.014419    0.758965    0.565399
      3          6           0        0.792065    1.548045    0.443342
      4          6           0       -0.177779    1.166187   -0.402557
      5          6           0       -1.569842    1.700120   -0.374468
      6          6           0       -2.371279    1.038797    0.775073
      7          6           0       -1.777904   -0.295625    1.263930
      8          6           0       -1.599202   -1.272735    0.125738
      9          8           0       -2.504782   -1.979356   -0.252424
     10          6           0       -0.258434   -1.319072   -0.583248
     11          6           0        1.011184   -1.518365    0.261859
     12          6           0        2.002744   -0.473632   -0.336125
     13          8           0        1.461889   -0.122573   -1.592504
     14          6           0        0.088511    0.010172   -1.325799
     15          1           0        0.676347    2.390990    1.108946
     16          1           0       -1.556950    2.779776   -0.224930
     17          1           0       -2.058729    1.490110   -1.326472
     18          1           0       -3.394120    0.869708    0.438854
     19          1           0       -2.403500    1.710173    1.633299
     20          1           0       -2.482500   -0.734725    1.972974
     21          1           0       -0.834073   -0.108981    1.772868
     22          1           0       -0.321577   -2.108340   -1.338036
     23          1           0        0.853297   -1.339568    1.324589
     24          1           0        1.402022   -2.526261    0.140696
     25          1           0        3.011242   -0.862792   -0.480169
     26          1           0       -0.437285    0.116790   -2.275773
 ---------------------------------------------------------------------
                    Distance matrix (angstroms):
                    1          2          3          4          5
     1  O    0.000000
     2  C    1.215533   0.000000
     3  C    2.369780   1.460032   0.000000
     4  C    3.555264   2.430741   1.342371   0.000000
     5  C    4.851163   3.823094   2.504105   1.491212   0.000000
     6  C    5.307742   4.399616   3.221200   2.492887   1.549547
     7  C    4.855430   3.997727   3.267603   2.733949   2.590490
     8  C    5.188031   4.168856   3.711581   2.871912   3.014786
     9  O    6.376802   5.347000   4.878099   3.915601   3.798362
    10  C    4.370992   3.286866   3.221459   2.493124   3.298319
    11  C    3.327798   2.506960   3.079581   3.010299   4.174357
    12  C    2.414833   1.527146   2.482033   2.729121   4.182109
    13  O    3.469894   2.395608   2.717406   2.401122   3.741285
    14  C    4.013062   2.801150   2.447428   1.503215   2.551684
    15  H    2.644390   2.179309   1.080267   2.124692   2.779061
    16  H    5.062075   4.178872   2.735255   2.130102   1.090039
    17  H    5.666043   4.550195   3.355983   2.120499   1.090608
    18  H    6.366182   5.411153   4.240791   3.337773   2.163116
    19  H    5.362960   4.643621   3.413783   3.065039   2.173985
    20  H    5.687991   4.943142   4.274762   3.816851   3.503127
    21  H    3.917115   3.213288   2.675388   2.605619   2.902628
    22  H    5.223003   4.159492   4.216949   3.408567   4.122014
    23  H    3.102267   2.515633   3.019711   3.213248   4.242417
    24  H    4.012163   3.368696   4.130813   4.052785   5.192270
    25  H    2.613497   2.171857   3.404373   3.780560   5.250335
    26  H    5.015276   3.807295   3.309589   2.162756   2.721136
                    6          7          8          9         10
     6  C    0.000000
     7  C    1.540051   0.000000
     8  C    2.522086   1.510682   0.000000
     9  O    3.191053   2.379628   1.209295   0.000000
    10  C    3.445098   2.601596   1.517389   2.364636   0.000000
    11  C    4.271244   3.205971   2.625448   3.583157   1.538132
    12  C    4.759651   4.109156   3.718319   4.753104   2.426677
    13  O    4.652675   4.322664   3.693983   4.580168   2.325880
    14  C    3.394451   3.206823   2.569277   3.440279   1.561615
    15  H    3.350809   3.642152   4.423540   5.574301   4.183527
    16  H    2.166599   3.423978   4.067874   4.852678   4.314522
    17  H    2.172064   3.158781   3.154900   3.659199   3.418326
    18  H    1.089880   2.156596   2.812443   3.063650   3.958280
    19  H    1.090107   2.133314   3.437640   4.144735   4.323276
    20  H    2.143062   1.091790   2.117062   2.549902   3.438343
    21  H    2.162404   1.088426   2.157031   3.223566   2.710529
    22  H    4.309407   3.489564   2.114994   2.441634   1.093909
    23  H    4.044315   2.831381   2.730653   3.764705   2.208214
    24  H    5.229711   4.043430   3.252522   3.964438   2.176813
    25  H    5.844930   5.128302   4.668123   5.632504   3.302967
    26  H    3.728015   3.807472   3.008003   3.572438   2.226730
                   11         12         13         14         15
    11  C    0.000000
    12  C    1.559565   0.000000
    13  O    2.364325   1.412181   0.000000
    14  C    2.389227   2.208576   1.405319   0.000000
    15  H    4.014067   3.471832   3.772652   3.455695   0.000000
    16  H    5.030536   4.823738   4.405369   3.404432   2.630208
    17  H    4.582366   4.618726   3.881529   2.607845   3.771403
    18  H    5.014073   5.615274   5.356479   3.997689   4.396820
    19  H    4.895341   5.297416   5.357797   4.225681   3.197485
    20  H    3.968354   5.051487   5.352155   4.248160   4.527135
    21  H    2.770286   3.553639   4.073985   3.235289   2.995332
    22  H    2.164252   3.013065   2.681189   2.157873   5.218002
    23  H    1.089171   2.197508   3.218834   3.071034   3.740972
    24  H    1.087791   2.191235   2.963998   3.210827   5.063938
    25  H    2.231729   1.090533   2.045900   3.165362   4.308610
    26  H    3.348338   3.172471   2.032489   1.090999   4.227113
                   16         17         18         19         20
    16  H    0.000000
    17  H    1.768732   0.000000
    18  H    2.732063   2.298814   0.000000
    19  H    2.305149   2.987898   1.764769   0.000000
    20  H    4.247251   4.001976   2.399745   2.469644   0.000000
    21  H    3.585898   3.696319   3.048157   2.406636   1.774516
    22  H    5.163220   3.995833   4.633210   5.267284   4.185594
    23  H    5.017898   4.849237   4.868879   4.472465   3.451635
    24  H    6.086315   5.500965   5.884258   5.887039   4.653639
    25  H    5.848233   5.653050   6.698867   6.356596   6.017932
    26  H    3.542754   2.327287   4.083989   4.656792   4.791641
                   21         22         23         24         25
    21  H    0.000000
    22  H    3.733339   0.000000
    23  H    2.136005   3.010136   0.000000
    24  H    3.675235   2.309134   1.763787   0.000000
    25  H    4.520050   3.659919   2.853277   2.396286   0.000000
    26  H    4.074298   2.417424   4.092577   4.025927   4.009503
                   26
    26  H    0.000000
 Stoichiometry    C11H12O3
 Framework group  C1[X(C11H12O3)]
 Deg. of freedom    72
 Full point group                 C1      NOp   1
 Largest Abelian subgroup         C1      NOp   1
 Largest concise Abelian subgroup C1      NOp   1
                         Standard orientation:                         
 ---------------------------------------------------------------------
 Center     Atomic      Atomic             Coordinates (Angstroms)
 Number     Number       Type             X           Y           Z
 ---------------------------------------------------------------------
      1          8           0       -3.073023    0.834856   -1.133000
      2          6           0       -2.154585    0.521842   -0.400870
      3          6           0       -1.094619    1.429719    0.027997
      4          6           0       -0.069212    0.972544    0.763857
      5          6           0        1.203334    1.719318    0.979885
      6          6           0        2.107666    1.605142   -0.273208
      7          6           0        1.763788    0.413365   -1.185991
      8          6           0        1.768024   -0.889569   -0.421461
      9          8           0        2.787527   -1.512403   -0.234146
     10          6           0        0.459831   -1.388642    0.163370
     11          6           0       -0.755372   -1.525373   -0.769602
     12          6           0       -1.917637   -0.911517    0.069782
     13          8           0       -1.445394   -0.889237    1.400475
     14          6           0       -0.119427   -0.444185    1.263871
     15          1           0       -1.135143    2.446839   -0.333668
     16          1           0        0.995074    2.771414    1.174583
     17          1           0        1.724963    1.305881    1.843828
     18          1           0        3.145222    1.517127    0.048616
     19          1           0        2.015454    2.508934   -0.875696
     20          1           0        2.534023    0.350089   -1.957184
     21          1           0        0.800253    0.586130   -1.661831
     22          1           0        0.666835   -2.353151    0.636134
     23          1           0       -0.635572   -0.994472   -1.713045
     24          1           0       -0.957247   -2.571128   -0.990808
     25          1           0       -2.838757   -1.493932    0.029857
     26          1           0        0.381271   -0.555325    2.226799
 ---------------------------------------------------------------------
 Rotational constants (GHZ):           1.1985753           0.6676856           0.5642488
 Leave Link  202 at Tue Jan 20 11:30:27 2026, MaxMem=  4294967296 cpu:               0.3 elap:               0.0
 (Enter /root/g16/l301.exe)
 Standard basis: def2SVP (5D, 7F)
 Ernie: Thresh=  0.10000D-02 Tol=  0.10000D-05 Strict=F.
 There are   270 symmetry adapted cartesian basis functions of A   symmetry.
 There are   256 symmetry adapted basis functions of A   symmetry.
   256 basis functions,   434 primitive gaussians,   270 cartesian basis functions
    51 alpha electrons       51 beta electrons
       nuclear repulsion energy       947.8382657005 Hartrees.
 IExCor=  402 DFT=T Ex+Corr=B3LYP ExCW=0 ScaHFX=  0.200000
 ScaDFX=  0.800000  0.720000  1.000000  0.810000 ScalE2=  1.000000  1.000000
 IRadAn=      5 IRanWt=     -1 IRanGd=            0 ICorTp=0 IEmpDi=141
 NAtoms=   26 NActive=   26 NUniq=   26 SFac= 1.00D+00 NAtFMM=   60 NAOKFM=F Big=F
 Integral buffers will be    131072 words long.
 Raffenetti 2 integral format.
 Two-electron integral symmetry is turned on.
 R6Disp:  Grimme-D3(BJ) Dispersion energy=       -0.0582882181 Hartrees.
 Nuclear repulsion after empirical dispersion term =      947.7799774824 Hartrees.
 Force inversion solution in PCM.
 ------------------------------------------------------------------------------
 Polarizable Continuum Model (PCM)
 =================================
 Model                : PCM.
 Atomic radii         : UFF (Universal Force Field).
 Polarization charges : Total charges.
 Charge compensation  : None.
 Solution method      : Matrix inversion.
 Cavity type          : Scaled VdW (van der Waals Surface) (Alpha=1.100).
 Cavity algorithm     : GePol (No added spheres)
                        Default sphere list used, NSphG=   26.
                        Lebedev-Laikov grids with approx.  5.0 points / Ang**2.
                        Smoothing algorithm: York/Karplus (Gamma=1.0000).
                        Polarization charges: spherical gaussians, with
                                              point-specific exponents (IZeta= 3).
                        Self-potential: point-specific (ISelfS= 7).
                        Self-field    : sphere-specific E.n sum rule (ISelfD= 2).
 1st derivatives      : Analytical E(r).r(x)/FMM algorithm (CHGder, D1EAlg=3).
                        Cavity 1st derivative terms included.
 2nd derivatives      : Analytical E(r).r(xy)/FMM algorithm (CHGder, D2EAlg=3).
                        Cavity 2nd derivative terms included.
 Solvent              : Acetone, Eps=  20.493000 Eps(inf)=   1.846337
 ------------------------------------------------------------------------------
 GePol: Number of generator spheres                  =      26
 GePol: Total number of spheres                      =      26
 GePol: Number of exposed spheres                    =      26 (100.00%)
 GePol: Number of points                             =    1814
 GePol: Average weight of points                     =       0.13
 GePol: Minimum weight of points                     =   0.78D-10
 GePol: Maximum weight of points                     =    0.20577
 GePol: Number of points with low weight             =     133
 GePol: Fraction of low-weight points (<1% of avg)   =       7.33%
 GePol: Cavity surface area                          =    235.809 Ang**2
 GePol: Cavity volume                                =    256.140 Ang**3
 Leave Link  301 at Tue Jan 20 11:30:27 2026, MaxMem=  4294967296 cpu:               0.4 elap:               0.0
 (Enter /root/g16/l302.exe)
 NPDir=0 NMtPBC=     1 NCelOv=     1 NCel=       1 NClECP=     1 NCelD=      1
         NCelK=      1 NCelE2=     1 NClLst=     1 CellRange=     0.0.
 One-electron integrals computed using PRISM.
 One-electron integral symmetry used in STVInt
   1 Symmetry operations used in ECPInt.
 ECPInt:  NShTT=    7260 NPrTT=   26324 LenC2=    7137 LenP2D=   20010.
 LDataN:  DoStor=T MaxTD1= 4 Len=   56
 NBasis=   256 RedAO= T EigKep=  3.51D-04  NBF=   256
 NBsUse=   256 1.00D-06 EigRej= -1.00D+00 NBFU=   256
 Precomputing XC quadrature grid using
 IXCGrd= 4 IRadAn=           5 IRanWt=          -1 IRanGd=           0 AccXCQ= 0.00D+00.
 Generated NRdTot=       0 NPtTot=           0 NUsed=           0 NTot=          32
 NSgBfM=   270   270   270   270   270 MxSgAt=    26 MxSgA2=    26.
 Leave Link  302 at Tue Jan 20 11:30:27 2026, MaxMem=  4294967296 cpu:               2.0 elap:               0.1
 (Enter /root/g16/l303.exe)
 DipDrv:  MaxL=1.
 Leave Link  303 at Tue Jan 20 11:30:27 2026, MaxMem=  4294967296 cpu:               0.2 elap:               0.0
 (Enter /root/g16/l401.exe)
 ExpMin= 1.22D-01 ExpMax= 2.27D+03 ExpMxC= 3.41D+02 IAcc=3 IRadAn=         5 AccDes= 0.00D+00
 Harris functional with IExCor=  402 and IRadAn=       5 diagonalized for initial guess.
 HarFok:  IExCor=  402 AccDes= 0.00D+00 IRadAn=         5 IDoV= 1 UseB2=F ITyADJ=14
 ICtDFT=  3500011 ScaDFX=  1.000000  1.000000  1.000000  1.000000
 FoFCou: FMM=F IPFlag=           0 FMFlag=      100000 FMFlg1=           0
         NFxFlg=           0 DoJE=T BraDBF=F KetDBF=T FulRan=T
         wScrn=  0.000000 ICntrl=       500 IOpCl=  0 I1Cent=   200000004 NGrid=           0
         NMat0=    1 NMatS0=      1 NMatT0=    0 NMatD0=    1 NMtDS0=    0 NMtDT0=    0
 Petite list used in FoFCou.
 Harris En= -651.597741174726    
 JPrj=0 DoOrth=F DoCkMO=F.
 Leave Link  401 at Tue Jan 20 11:30:28 2026, MaxMem=  4294967296 cpu:               9.3 elap:               0.6
 (Enter /root/g16/l502.exe)
 Integral symmetry usage will be decided dynamically.
 Closed shell SCF:
 Using DIIS extrapolation, IDIIS=  1040.
 NGot=  4294967296 LenX=  4294814202 LenY=  4294740861
 Requested convergence on RMS density matrix=1.00D-08 within 128 cycles.
 Requested convergence on MAX density matrix=1.00D-06.
 Requested convergence on             energy=1.00D-06.
 No special actions if energy rises.
 Fock matrices will be formed incrementally for  20 cycles.

 Cycle   1  Pass 1  IDiag  1:
 FoFJK:  IHMeth= 1 ICntrl=       0 DoSepK=F KAlg= 0 I1Cent=           0 FoldK=F
 IRaf= 960000000 NMat=       1 IRICut=       1 DoRegI=T DoRafI=F ISym2E= 0 IDoP0=0 IntGTp=1.
 FoFCou: FMM=F IPFlag=           0 FMFlag=      100000 FMFlg1=           0
         NFxFlg=           0 DoJE=F BraDBF=F KetDBF=F FulRan=T
         wScrn=  0.000000 ICntrl=         0 IOpCl=  0 I1Cent=           0 NGrid=           0
         NMat0=    1 NMatS0=      1 NMatT0=    0 NMatD0=    1 NMtDS0=    0 NMtDT0=    0
 Symmetry not used in FoFCou.
 Inv3:  Mode=1 IEnd=     9871788.
 Iteration    1 A*A^-1 deviation from unit magnitude is 2.66D-15 for    184.
 Iteration    1 A*A^-1 deviation from orthogonality  is 2.12D-15 for   1813   1127.
 Iteration    1 A^-1*A deviation from unit magnitude is 2.89D-15 for    368.
 Iteration    1 A^-1*A deviation from orthogonality  is 1.67D-15 for   1718   1000.
 E= -651.335961537918    
 DIIS: error= 2.25D-02 at cycle   1 NSaved=   1.
 NSaved= 1 IEnMin= 1 EnMin= -651.335961537918     IErMin= 1 ErrMin= 2.25D-02
 ErrMax= 2.25D-02  0.00D+00 EMaxC= 1.00D-01 BMatC= 3.02D-01 BMatP= 3.02D-01
 IDIUse=3 WtCom= 7.75D-01 WtEn= 2.25D-01
 Coeff-Com:  0.100D+01
 Coeff-En:   0.100D+01
 Coeff:      0.100D+01
 Gap=     0.152 Goal=   None    Shift=    0.000
 GapD=    0.152 DampG=1.000 DampE=0.500 DampFc=0.5000 IDamp=-1.
 Damping current iteration by 5.00D-01
 RMSDP=7.56D-03 MaxDP=3.49D-01              OVMax= 1.66D-01

 Cycle   2  Pass 1  IDiag  1:
 RMSU=  3.77D-03    CP:  9.89D-01
 E= -651.442175644536     Delta-E=       -0.106214106618 Rises=F Damp=T
 DIIS: error= 6.75D-03 at cycle   2 NSaved=   2.
 NSaved= 2 IEnMin= 2 EnMin= -651.442175644536     IErMin= 2 ErrMin= 6.75D-03
 ErrMax= 6.75D-03  0.00D+00 EMaxC= 1.00D-01 BMatC= 3.27D-02 BMatP= 3.02D-01
 IDIUse=3 WtCom= 9.32D-01 WtEn= 6.75D-02
 Coeff-Com:  0.159D+00 0.841D+00
 Coeff-En:   0.220D+00 0.780D+00
 Coeff:      0.163D+00 0.837D+00
 Gap=     0.196 Goal=   None    Shift=    0.000
 RMSDP=2.29D-03 MaxDP=1.22D-01 DE=-1.06D-01 OVMax= 1.33D-01

 Cycle   3  Pass 1  IDiag  1:
 RMSU=  2.16D-03    CP:  9.63D-01  8.67D-01
 E= -651.588187309962     Delta-E=       -0.146011665425 Rises=F Damp=F
 DIIS: error= 1.02D-02 at cycle   3 NSaved=   3.
 NSaved= 3 IEnMin= 3 EnMin= -651.588187309962     IErMin= 2 ErrMin= 6.75D-03
 ErrMax= 1.02D-02  0.00D+00 EMaxC= 1.00D-01 BMatC= 3.40D-02 BMatP= 3.27D-02
 IDIUse=3 WtCom= 8.98D-01 WtEn= 1.02D-01
 Coeff-Com:  0.247D-01 0.504D+00 0.472D+00
 Coeff-En:   0.000D+00 0.000D+00 0.100D+01
 Coeff:      0.222D-01 0.452D+00 0.525D+00
 Gap=     0.177 Goal=   None    Shift=    0.000
 RMSDP=1.24D-03 MaxDP=5.56D-02 DE=-1.46D-01 OVMax= 6.08D-02

 Cycle   4  Pass 1  IDiag  1:
 RMSU=  9.17D-04    CP:  9.72D-01  1.00D+00  7.08D-01
 E= -651.611402233660     Delta-E=       -0.023214923698 Rises=F Damp=F
 DIIS: error= 3.91D-03 at cycle   4 NSaved=   4.
 NSaved= 4 IEnMin= 4 EnMin= -651.611402233660     IErMin= 4 ErrMin= 3.91D-03
 ErrMax= 3.91D-03  0.00D+00 EMaxC= 1.00D-01 BMatC= 7.49D-03 BMatP= 3.27D-02
 IDIUse=3 WtCom= 9.61D-01 WtEn= 3.91D-02
 Coeff-Com:  0.328D-02 0.135D+00 0.334D+00 0.527D+00
 Coeff-En:   0.000D+00 0.000D+00 0.214D+00 0.786D+00
 Coeff:      0.315D-02 0.130D+00 0.329D+00 0.537D+00
 Gap=     0.180 Goal=   None    Shift=    0.000
 RMSDP=5.81D-04 MaxDP=2.71D-02 DE=-2.32D-02 OVMax= 2.43D-02

 Cycle   5  Pass 1  IDiag  1:
 RMSU=  2.28D-04    CP:  9.69D-01  9.28D-01  7.75D-01  5.41D-01
 E= -651.617687326565     Delta-E=       -0.006285092905 Rises=F Damp=F
 DIIS: error= 4.25D-04 at cycle   5 NSaved=   5.
 NSaved= 5 IEnMin= 5 EnMin= -651.617687326565     IErMin= 5 ErrMin= 4.25D-04
 ErrMax= 4.25D-04  0.00D+00 EMaxC= 1.00D-01 BMatC= 1.61D-04 BMatP= 7.49D-03
 IDIUse=3 WtCom= 9.96D-01 WtEn= 4.25D-03
 Coeff-Com: -0.270D-04 0.182D-01 0.105D+00 0.231D+00 0.646D+00
 Coeff-En:   0.000D+00 0.000D+00 0.000D+00 0.000D+00 0.100D+01
 Coeff:     -0.269D-04 0.181D-01 0.104D+00 0.230D+00 0.647D+00
 Gap=     0.178 Goal=   None    Shift=    0.000
 RMSDP=9.47D-05 MaxDP=3.63D-03 DE=-6.29D-03 OVMax= 9.00D-03

 Cycle   6  Pass 1  IDiag  1:
 RMSU=  5.45D-05    CP:  9.69D-01  9.36D-01  7.76D-01  5.86D-01  7.51D-01
 E= -651.617804958105     Delta-E=       -0.000117631540 Rises=F Damp=F
 DIIS: error= 2.21D-04 at cycle   6 NSaved=   6.
 NSaved= 6 IEnMin= 6 EnMin= -651.617804958105     IErMin= 6 ErrMin= 2.21D-04
 ErrMax= 2.21D-04  0.00D+00 EMaxC= 1.00D-01 BMatC= 4.30D-05 BMatP= 1.61D-04
 IDIUse=3 WtCom= 9.98D-01 WtEn= 2.21D-03
 Coeff-Com: -0.147D-03-0.684D-03 0.359D-01 0.948D-01 0.405D+00 0.465D+00
 Coeff-En:   0.000D+00 0.000D+00 0.000D+00 0.000D+00 0.211D+00 0.789D+00
 Coeff:     -0.147D-03-0.683D-03 0.358D-01 0.946D-01 0.404D+00 0.466D+00
 Gap=     0.178 Goal=   None    Shift=    0.000
 RMSDP=3.22D-05 MaxDP=1.70D-03 DE=-1.18D-04 OVMax= 3.87D-03

 Cycle   7  Pass 1  IDiag  1:
 RMSU=  1.50D-05    CP:  9.69D-01  9.36D-01  7.79D-01  5.86D-01  7.70D-01
                    CP:  4.95D-01
 E= -651.617848220386     Delta-E=       -0.000043262281 Rises=F Damp=F
 DIIS: error= 4.89D-05 at cycle   7 NSaved=   7.
 NSaved= 7 IEnMin= 7 EnMin= -651.617848220386     IErMin= 7 ErrMin= 4.89D-05
 ErrMax= 4.89D-05  0.00D+00 EMaxC= 1.00D-01 BMatC= 1.58D-06 BMatP= 4.30D-05
 IDIUse=1 WtCom= 1.00D+00 WtEn= 0.00D+00
 Coeff-Com: -0.253D-04-0.157D-02 0.116D-01 0.323D-01 0.165D+00 0.238D+00
 Coeff-Com:  0.555D+00
 Coeff:     -0.253D-04-0.157D-02 0.116D-01 0.323D-01 0.165D+00 0.238D+00
 Coeff:      0.555D+00
 Gap=     0.178 Goal=   None    Shift=    0.000
 RMSDP=7.43D-06 MaxDP=2.54D-04 DE=-4.33D-05 OVMax= 4.34D-04

 Cycle   8  Pass 1  IDiag  1:
 RMSU=  4.46D-06    CP:  9.69D-01  9.35D-01  7.80D-01  5.87D-01  7.70D-01
                    CP:  5.14D-01  6.62D-01
 E= -651.617849632844     Delta-E=       -0.000001412458 Rises=F Damp=F
 DIIS: error= 1.25D-05 at cycle   8 NSaved=   8.
 NSaved= 8 IEnMin= 8 EnMin= -651.617849632844     IErMin= 8 ErrMin= 1.25D-05
 ErrMax= 1.25D-05  0.00D+00 EMaxC= 1.00D-01 BMatC= 1.18D-07 BMatP= 1.58D-06
 IDIUse=1 WtCom= 1.00D+00 WtEn= 0.00D+00
 Coeff-Com:  0.441D-04-0.757D-03 0.203D-02 0.550D-02 0.383D-01 0.647D-01
 Coeff-Com:  0.254D+00 0.637D+00
 Coeff:      0.441D-04-0.757D-03 0.203D-02 0.550D-02 0.383D-01 0.647D-01
 Coeff:      0.254D+00 0.637D+00
 Gap=     0.178 Goal=   None    Shift=    0.000
 RMSDP=2.33D-06 MaxDP=1.16D-04 DE=-1.41D-06 OVMax= 6.99D-05

 Cycle   9  Pass 1  IDiag  1:
 RMSU=  1.60D-06    CP:  9.69D-01  9.35D-01  7.80D-01  5.86D-01  7.74D-01
                    CP:  5.21D-01  6.86D-01  7.58D-01
 E= -651.617849721125     Delta-E=       -0.000000088281 Rises=F Damp=F
 DIIS: error= 7.31D-06 at cycle   9 NSaved=   9.
 NSaved= 9 IEnMin= 9 EnMin= -651.617849721125     IErMin= 9 ErrMin= 7.31D-06
 ErrMax= 7.31D-06  0.00D+00 EMaxC= 1.00D-01 BMatC= 2.10D-08 BMatP= 1.18D-07
 IDIUse=1 WtCom= 1.00D+00 WtEn= 0.00D+00
 Coeff-Com:  0.332D-04-0.337D-03 0.368D-03 0.803D-03 0.104D-01 0.190D-01
 Coeff-Com:  0.103D+00 0.369D+00 0.497D+00
 Coeff:      0.332D-04-0.337D-03 0.368D-03 0.803D-03 0.104D-01 0.190D-01
 Coeff:      0.103D+00 0.369D+00 0.497D+00
 Gap=     0.178 Goal=   None    Shift=    0.000
 RMSDP=8.76D-07 MaxDP=4.62D-05 DE=-8.83D-08 OVMax= 2.82D-05

 Cycle  10  Pass 1  IDiag  1:
 RMSU=  5.33D-07    CP:  9.69D-01  9.35D-01  7.80D-01  5.86D-01  7.74D-01
                    CP:  5.20D-01  6.93D-01  8.01D-01  6.27D-01
 E= -651.617849735649     Delta-E=       -0.000000014524 Rises=F Damp=F
 DIIS: error= 3.11D-06 at cycle  10 NSaved=  10.
 NSaved=10 IEnMin=10 EnMin= -651.617849735649     IErMin=10 ErrMin= 3.11D-06
 ErrMax= 3.11D-06  0.00D+00 EMaxC= 1.00D-01 BMatC= 2.67D-09 BMatP= 2.10D-08
 IDIUse=1 WtCom= 1.00D+00 WtEn= 0.00D+00
 Coeff-Com:  0.156D-04-0.745D-04-0.145D-03-0.567D-03-0.604D-03-0.741D-03
 Coeff-Com:  0.166D-01 0.109D+00 0.293D+00 0.584D+00
 Coeff:      0.156D-04-0.745D-04-0.145D-03-0.567D-03-0.604D-03-0.741D-03
 Coeff:      0.166D-01 0.109D+00 0.293D+00 0.584D+00
 Gap=     0.178 Goal=   None    Shift=    0.000
 RMSDP=3.16D-07 MaxDP=1.70D-05 DE=-1.45D-08 OVMax= 1.16D-05

 Cycle  11  Pass 1  IDiag  1:
 RMSU=  1.76D-07    CP:  9.69D-01  9.35D-01  7.80D-01  5.86D-01  7.74D-01
                    CP:  5.20D-01  6.96D-01  8.19D-01  6.88D-01  6.57D-01
 E= -651.617849737671     Delta-E=       -0.000000002022 Rises=F Damp=F
 DIIS: error= 6.19D-07 at cycle  11 NSaved=  11.
 NSaved=11 IEnMin=11 EnMin= -651.617849737671     IErMin=11 ErrMin= 6.19D-07
 ErrMax= 6.19D-07  0.00D+00 EMaxC= 1.00D-01 BMatC= 2.05D-10 BMatP= 2.67D-09
 IDIUse=1 WtCom= 1.00D+00 WtEn= 0.00D+00
 Coeff-Com:  0.631D-05-0.134D-04-0.916D-04-0.339D-03-0.977D-03-0.187D-02
 Coeff-Com:  0.826D-03 0.261D-01 0.110D+00 0.302D+00 0.565D+00
 Coeff:      0.631D-05-0.134D-04-0.916D-04-0.339D-03-0.977D-03-0.187D-02
 Coeff:      0.826D-03 0.261D-01 0.110D+00 0.302D+00 0.565D+00
 Gap=     0.178 Goal=   None    Shift=    0.000
 RMSDP=9.03D-08 MaxDP=4.18D-06 DE=-2.02D-09 OVMax= 3.23D-06

 Cycle  12  Pass 1  IDiag  1:
 RMSU=  6.41D-08    CP:  9.69D-01  9.35D-01  7.80D-01  5.86D-01  7.74D-01
                    CP:  5.19D-01  6.96D-01  8.22D-01  6.90D-01  7.07D-01
                    CP:  7.73D-01
 E= -651.617849737823     Delta-E=       -0.000000000151 Rises=F Damp=F
 DIIS: error= 1.66D-07 at cycle  12 NSaved=  12.
 NSaved=12 IEnMin=12 EnMin= -651.617849737823     IErMin=12 ErrMin= 1.66D-07
 ErrMax= 1.66D-07  0.00D+00 EMaxC= 1.00D-01 BMatC= 2.44D-11 BMatP= 2.05D-10
 IDIUse=1 WtCom= 1.00D+00 WtEn= 0.00D+00
 Coeff-Com:  0.134D-05 0.179D-05-0.276D-04-0.106D-03-0.422D-03-0.947D-03
 Coeff-Com: -0.170D-02-0.140D-02 0.186D-01 0.816D-01 0.299D+00 0.605D+00
 Coeff:      0.134D-05 0.179D-05-0.276D-04-0.106D-03-0.422D-03-0.947D-03
 Coeff:     -0.170D-02-0.140D-02 0.186D-01 0.816D-01 0.299D+00 0.605D+00
 Gap=     0.178 Goal=   None    Shift=    0.000
 RMSDP=2.89D-08 MaxDP=9.66D-07 DE=-1.51D-10 OVMax= 8.26D-07

 Cycle  13  Pass 1  IDiag  1:
 RMSU=  1.55D-08    CP:  9.69D-01  9.35D-01  7.80D-01  5.86D-01  7.74D-01
                    CP:  5.19D-01  6.96D-01  8.23D-01  6.95D-01  7.18D-01
                    CP:  8.13D-01  7.65D-01
 E= -651.617849737836     Delta-E=       -0.000000000013 Rises=F Damp=F
 DIIS: error= 3.64D-08 at cycle  13 NSaved=  13.
 NSaved=13 IEnMin=13 EnMin= -651.617849737836     IErMin=13 ErrMin= 3.64D-08
 ErrMax= 3.64D-08  0.00D+00 EMaxC= 1.00D-01 BMatC= 1.42D-12 BMatP= 2.44D-11
 IDIUse=1 WtCom= 1.00D+00 WtEn= 0.00D+00
 Coeff-Com:  0.237D-06 0.146D-05-0.432D-05-0.214D-04-0.100D-03-0.279D-03
 Coeff-Com: -0.721D-03-0.254D-02 0.546D-04 0.140D-01 0.927D-01 0.269D+00
 Coeff-Com:  0.627D+00
 Coeff:      0.237D-06 0.146D-05-0.432D-05-0.214D-04-0.100D-03-0.279D-03
 Coeff:     -0.721D-03-0.254D-02 0.546D-04 0.140D-01 0.927D-01 0.269D+00
 Coeff:      0.627D+00
 Gap=     0.178 Goal=   None    Shift=    0.000
 RMSDP=7.25D-09 MaxDP=2.20D-07 DE=-1.33D-11 OVMax= 4.03D-07

 Error on total polarization charges =  0.00858
 SCF Done:  E(RB3LYP) =  -651.617849738     A.U. after   13 cycles
            NFock= 13  Conv=0.72D-08     -V/T= 2.0094
 KE= 6.455397195116D+02 PE=-3.412262540533D+03 EE= 1.167324993801D+03
 Leave Link  502 at Tue Jan 20 11:30:45 2026, MaxMem=  4294967296 cpu:             282.0 elap:              17.8
 (Enter /root/g16/l801.exe)
 DoSCS=F DFT=T ScalE2(SS,OS)=  1.000000  1.000000
 Range of M.O.s used for correlation:     1   256
 NBasis=   256 NAE=    51 NBE=    51 NFC=     0 NFV=     0
 NROrb=    256 NOA=    51 NOB=    51 NVA=   205 NVB=   205

 **** Warning!!: The largest alpha MO coefficient is  0.10139616D+02

 Leave Link  801 at Tue Jan 20 11:30:45 2026, MaxMem=  4294967296 cpu:               0.1 elap:               0.0
 (Enter /root/g16/l1101.exe)
 Using compressed storage, NAtomX=    26.
 Will process     27 centers per pass.
   1 Symmetry operations used in ECPInt.
 ECPInt:  NShTT=    7260 NPrTT=   26324 LenC2=    7137 LenP2D=   20010.
 LDataN:  DoStor=T MaxTD1= 5 Len=  102
 R6Disp: Adding Grimme-D3(BJ) dispersion energy 1st derivatives to the gradient.
 Leave Link 1101 at Tue Jan 20 11:30:46 2026, MaxMem=  4294967296 cpu:               3.4 elap:               0.2
 (Enter /root/g16/l1102.exe)
 Symmetrizing basis deriv contribution to polar:
 IMax=3 JMax=2 DiffMx= 0.00D+00
 Leave Link 1102 at Tue Jan 20 11:30:46 2026, MaxMem=  4294967296 cpu:               0.3 elap:               0.0
 (Enter /root/g16/l1110.exe)
 Forming Gx(P) for the SCF density, NAtomX=    26.
 Integral derivatives from FoFJK, PRISM(SPDF).
 Do as many integral derivatives as possible in FoFJK.
 G2DrvN: MDV=    4294965288.
 G2DrvN: will do    27 centers at a time, making    1 passes.
 Calling FoFCou, ICntrl=  3107 FMM=F I1Cent=   0 AccDes= 0.00D+00.
 FoFJK:  IHMeth= 1 ICntrl=    3107 DoSepK=F KAlg= 0 I1Cent=           0 FoldK=F
 IRaf=         0 NMat=       1 IRICut=       1 DoRegI=T DoRafI=F ISym2E= 0 IDoP0=0 IntGTp=1.
 FoFCou: FMM=F IPFlag=           0 FMFlag=      100000 FMFlg1=           0
         NFxFlg=           0 DoJE=F BraDBF=F KetDBF=F FulRan=T
         wScrn=  0.000000 ICntrl=      3107 IOpCl=  0 I1Cent=           0 NGrid=           0
         NMat0=    1 NMatS0=      1 NMatT0=    0 NMatD0=    1 NMtDS0=    0 NMtDT0=    0
 Symmetry not used in FoFCou.
 NEqPCM:  Using equilibrium solvation (IEInf=0, Eps=  20.4930, EpsInf=   1.8463)
 G2PCM: DoFxE=T DoFxN=T DoGrad=T DoDP/DQ/DG/TGxP=FFFF NFrqRd=   0 IEInf=0 SqF1=F DoCFld=F IF1Alg=4.
 GePol: Maximum number of non-zero 1st derivatives   =     229
 End of G2Drv F.D. properties file   721 does not exist.
 End of G2Drv F.D. properties file   722 does not exist.
 End of G2Drv F.D. properties file   788 does not exist.
 Leave Link 1110 at Tue Jan 20 11:31:12 2026, MaxMem=  4294967296 cpu:             418.8 elap:              26.2
 (Enter /root/g16/l1002.exe)
 Minotr:  Closed shell wavefunction.
          IDoAtm=11111111111111111111111111
 NEqPCM:  Using equilibrium solvation (IEInf=0, Eps=  20.4930, EpsInf=   1.8463)
          Direct CPHF calculation.
          Differentiating once with respect to nuclear coordinates.
          Requested convergence is 1.0D-08 RMS, and 1.0D-07 maximum.
          Secondary convergence is 1.0D-12 RMS, and 1.0D-12 maximum.
          NewPWx=T KeepS1=F KeepF1=F KeepIn=T MapXYZ=F SortEE=F KeepMc=T.
         7749 words used for storage of precomputed grid.
 Keep R1 ints in memory in canonical form, NReq=558668821.
 FoFCou: FMM=F IPFlag=           0 FMFlag=           0 FMFlg1=           0
         NFxFlg=           0 DoJE=F BraDBF=F KetDBF=F FulRan=T
         wScrn=  0.000000 ICntrl=       600 IOpCl=  0 I1Cent=           0 NGrid=           0
         NMat0=    1 NMatS0=  32896 NMatT0=    0 NMatD0=    1 NMtDS0=    0 NMtDT0=    0
 Symmetry not used in FoFCou.
 Two-electron integral symmetry not used.
          MDV=    4294967296 using IRadAn=       1.
          Solving linear equations simultaneously, MaxMat=       0.
          There are    81 degrees of freedom in the 1st order CPHF.  IDoFFX=6 NUNeed=     0.
     75 vectors produced by pass  0 Test12= 1.29D-14 1.23D-09 XBig12= 1.70D-01 1.03D-01.
 AX will form    75 AO Fock derivatives at one time.
     75 vectors produced by pass  1 Test12= 1.29D-14 1.23D-09 XBig12= 3.69D-02 6.73D-02.
     75 vectors produced by pass  2 Test12= 1.29D-14 1.23D-09 XBig12= 3.80D-04 2.41D-03.
     75 vectors produced by pass  3 Test12= 1.29D-14 1.23D-09 XBig12= 1.68D-06 1.59D-04.
     75 vectors produced by pass  4 Test12= 1.29D-14 1.23D-09 XBig12= 4.82D-09 5.62D-06.
     51 vectors produced by pass  5 Test12= 1.29D-14 1.23D-09 XBig12= 5.67D-12 1.84D-07.
     12 vectors produced by pass  6 Test12= 1.29D-14 1.23D-09 XBig12= 5.33D-15 6.36D-09.
 InvSVY:  IOpt=1 It=  1 EMax= 3.61D-16
 Solved reduced A of dimension   438 with    81 vectors.
 End of Minotr F.D. properties file   721 does not exist.
 End of Minotr F.D. properties file   722 does not exist.
 End of Minotr F.D. properties file   788 does not exist.
 Leave Link 1002 at Tue Jan 20 11:31:44 2026, MaxMem=  4294967296 cpu:             517.4 elap:              32.3
 (Enter /root/g16/l601.exe)
 Copying SCF densities to generalized density rwf, IOpCl= 0 IROHF=0.

 **********************************************************************

            Population analysis using the SCF density.

 **********************************************************************

 Orbital symmetries:
       Occupied  (A) (A) (A) (A) (A) (A) (A) (A) (A) (A) (A) (A)
                 (A) (A) (A) (A) (A) (A) (A) (A) (A) (A) (A) (A)
                 (A) (A) (A) (A) (A) (A) (A) (A) (A) (A) (A) (A)
                 (A) (A) (A) (A) (A) (A) (A) (A) (A) (A) (A) (A)
                 (A) (A) (A)
       Virtual   (A) (A) (A) (A) (A) (A) (A) (A) (A) (A) (A) (A)
                 (A) (A) (A) (A) (A) (A) (A) (A) (A) (A) (A) (A)
                 (A) (A) (A) (A) (A) (A) (A) (A) (A) (A) (A) (A)
                 (A) (A) (A) (A) (A) (A) (A) (A) (A) (A) (A) (A)
                 (A) (A) (A) (A) (A) (A) (A) (A) (A) (A) (A) (A)
                 (A) (A) (A) (A) (A) (A) (A) (A) (A) (A) (A) (A)
                 (A) (A) (A) (A) (A) (A) (A) (A) (A) (A) (A) (A)
                 (A) (A) (A) (A) (A) (A) (A) (A) (A) (A) (A) (A)
                 (A) (A) (A) (A) (A) (A) (A) (A) (A) (A) (A) (A)
                 (A) (A) (A) (A) (A) (A) (A) (A) (A) (A) (A) (A)
                 (A) (A) (A) (A) (A) (A) (A) (A) (A) (A) (A) (A)
                 (A) (A) (A) (A) (A) (A) (A) (A) (A) (A) (A) (A)
                 (A) (A) (A) (A) (A) (A) (A) (A) (A) (A) (A) (A)
                 (A) (A) (A) (A) (A) (A) (A) (A) (A) (A) (A) (A)
                 (A) (A) (A) (A) (A) (A) (A) (A) (A) (A) (A) (A)
                 (A) (A) (A) (A) (A) (A) (A) (A) (A) (A) (A) (A)
                 (A) (A) (A) (A) (A) (A) (A) (A) (A) (A) (A) (A)
                 (A)
 The electronic state is 1-A.
 Alpha  occ. eigenvalues --  -19.15501 -19.13594 -19.12832 -10.28286 -10.27404
 Alpha  occ. eigenvalues --  -10.26002 -10.24647 -10.22407 -10.20974 -10.20518
 Alpha  occ. eigenvalues --  -10.20261 -10.20121 -10.19523 -10.19438  -1.07218
 Alpha  occ. eigenvalues --   -1.04552  -1.03289  -0.85559  -0.80108  -0.78891
 Alpha  occ. eigenvalues --   -0.77068  -0.72158  -0.64496  -0.64199  -0.63163
 Alpha  occ. eigenvalues --   -0.57950  -0.54733  -0.53672  -0.51908  -0.50659
 Alpha  occ. eigenvalues --   -0.49382  -0.46959  -0.45697  -0.44997  -0.44283
 Alpha  occ. eigenvalues --   -0.43293  -0.42548  -0.41825  -0.40883  -0.39453
 Alpha  occ. eigenvalues --   -0.39078  -0.38084  -0.36436  -0.35885  -0.35250
 Alpha  occ. eigenvalues --   -0.34921  -0.33673  -0.30393  -0.27601  -0.25957
 Alpha  occ. eigenvalues --   -0.24485
 Alpha virt. eigenvalues --   -0.06656  -0.03546   0.03365   0.05420   0.06370
 Alpha virt. eigenvalues --    0.07804   0.09525   0.10214   0.10848   0.11770
 Alpha virt. eigenvalues --    0.12811   0.13323   0.13659   0.15164   0.16209
 Alpha virt. eigenvalues --    0.17313   0.18205   0.19455   0.21002   0.21665
 Alpha virt. eigenvalues --    0.22222   0.24171   0.24908   0.25742   0.27468
 Alpha virt. eigenvalues --    0.29277   0.30534   0.31730   0.34702   0.35736
 Alpha virt. eigenvalues --    0.38410   0.39510   0.41670   0.44391   0.45502
 Alpha virt. eigenvalues --    0.47035   0.47945   0.49000   0.50678   0.51038
 Alpha virt. eigenvalues --    0.51723   0.54062   0.55878   0.56364   0.56769
 Alpha virt. eigenvalues --    0.57626   0.58555   0.59640   0.60673   0.61057
 Alpha virt. eigenvalues --    0.61728   0.62904   0.63566   0.64747   0.65264
 Alpha virt. eigenvalues --    0.65737   0.66062   0.66572   0.67145   0.67796
 Alpha virt. eigenvalues --    0.68203   0.68979   0.69331   0.70011   0.70565
 Alpha virt. eigenvalues --    0.70969   0.72523   0.74270   0.75230   0.76956
 Alpha virt. eigenvalues --    0.77610   0.78471   0.80455   0.82372   0.85147
 Alpha virt. eigenvalues --    0.86732   0.88013   0.89535   0.93215   0.94517
 Alpha virt. eigenvalues --    0.98862   1.01413   1.03389   1.05637   1.09400
 Alpha virt. eigenvalues --    1.10328   1.12103   1.14222   1.14943   1.16840
 Alpha virt. eigenvalues --    1.18862   1.20560   1.22542   1.26374   1.28496
 Alpha virt. eigenvalues --    1.32157   1.35030   1.37837   1.39113   1.39790
 Alpha virt. eigenvalues --    1.40123   1.41829   1.44085   1.47598   1.50806
 Alpha virt. eigenvalues --    1.54480   1.55078   1.56420   1.59750   1.61472
 Alpha virt. eigenvalues --    1.64083   1.65227   1.67329   1.69428   1.70441
 Alpha virt. eigenvalues --    1.71443   1.72459   1.73250   1.73882   1.76442
 Alpha virt. eigenvalues --    1.76781   1.77197   1.79426   1.80570   1.81101
 Alpha virt. eigenvalues --    1.81485   1.82599   1.83663   1.84802   1.85707
 Alpha virt. eigenvalues --    1.87367   1.88039   1.88866   1.90535   1.91914
 Alpha virt. eigenvalues --    1.92683   1.93428   1.94256   1.96233   1.97333
 Alpha virt. eigenvalues --    1.99981   2.01101   2.02661   2.04157   2.06427
 Alpha virt. eigenvalues --    2.07994   2.10005   2.12520   2.13403   2.14489
 Alpha virt. eigenvalues --    2.17000   2.20591   2.22512   2.23530   2.26511
 Alpha virt. eigenvalues --    2.28273   2.28847   2.31601   2.33818   2.35030
 Alpha virt. eigenvalues --    2.37252   2.39204   2.40971   2.43934   2.45961
 Alpha virt. eigenvalues --    2.47916   2.49415   2.53904   2.56980   2.57516
 Alpha virt. eigenvalues --    2.59876   2.61474   2.63299   2.65301   2.67854
 Alpha virt. eigenvalues --    2.70071   2.71610   2.71959   2.75283   2.75973
 Alpha virt. eigenvalues --    2.77914   2.83238   2.84005   2.87659   2.88985
 Alpha virt. eigenvalues --    2.91096   2.92980   2.93931   2.97343   2.98892
 Alpha virt. eigenvalues --    3.01598   3.02623   3.05724   3.06481   3.09313
 Alpha virt. eigenvalues --    3.14324   3.16071   3.17418   3.21991   3.31290
 Alpha virt. eigenvalues --    3.38127   3.40767   3.57410   3.62594   3.63929
          Condensed to atoms (all electrons):
               1          2          3          4          5          6
     1  O    7.661432   0.729390  -0.098033   0.007176  -0.000097   0.000008
     2  C    0.729390   4.880567   0.152852   0.097325   0.008588  -0.000579
     3  C   -0.098033   0.152852   5.589112   0.179632  -0.045231  -0.016748
     4  C    0.007176   0.097325   0.179632   5.614425   0.333865  -0.027286
     5  C   -0.000097   0.008588  -0.045231   0.333865   4.673504   0.372120
     6  C    0.000008  -0.000579  -0.016748  -0.027286   0.372120   4.567769
     7  C    0.000021   0.000323  -0.010005  -0.001646  -0.061114   0.414102
     8  C   -0.000011   0.002186  -0.004981   0.013675  -0.018689  -0.011743
     9  O   -0.000000  -0.000020   0.000037  -0.000106  -0.001409   0.000833
    10  C    0.000233  -0.013512  -0.003086  -0.092392   0.014817  -0.004858
    11  C    0.000359  -0.055899   0.036470  -0.059479  -0.001867   0.000657
    12  C   -0.087192   0.227543  -0.169696   0.013834  -0.001519   0.000147
    13  O    0.001438  -0.023053   0.004224  -0.056783   0.004724  -0.000092
    14  C    0.000532  -0.052981   0.012573   0.174873  -0.062070  -0.000085
    15  H    0.005330  -0.050194   0.410120  -0.056935  -0.020253   0.001539
    16  H   -0.000002   0.000755  -0.020514   0.018419   0.323147   0.004871
    17  H    0.000001  -0.000931   0.014972  -0.007772   0.336799  -0.006537
    18  H   -0.000000   0.000067  -0.000814   0.006717  -0.018146   0.354890
    19  H   -0.000003  -0.000340   0.008356  -0.011639   0.004103   0.349523
    20  H   -0.000000  -0.000028   0.000459  -0.000599   0.010655   0.001950
    21  H    0.000006   0.001787  -0.012172   0.035135  -0.027786   0.011118
    22  H   -0.000008   0.000478  -0.000595   0.011963  -0.000140  -0.000805
    23  H    0.002463   0.000019  -0.002198   0.001224   0.001172  -0.000064
    24  H   -0.000227   0.004072  -0.001357   0.001878  -0.000088  -0.000008
    25  H    0.008940  -0.020029   0.015474  -0.000109   0.000125  -0.000005
    26  H    0.000015   0.000315   0.008794  -0.036720  -0.006701  -0.000416
               7          8          9         10         11         12
     1  O    0.000021  -0.000011  -0.000000   0.000233   0.000359  -0.087192
     2  C    0.000323   0.002186  -0.000020  -0.013512  -0.055899   0.227543
     3  C   -0.010005  -0.004981   0.000037  -0.003086   0.036470  -0.169696
     4  C   -0.001646   0.013675  -0.000106  -0.092392  -0.059479   0.013834
     5  C   -0.061114  -0.018689  -0.001409   0.014817  -0.001867  -0.001519
     6  C    0.414102  -0.011743   0.000833  -0.004858   0.000657   0.000147
     7  C    4.900674   0.304158  -0.096539  -0.206961   0.013815  -0.003518
     8  C    0.304158   4.850102   0.730539   0.188385  -0.034132   0.006336
     9  O   -0.096539   0.730539   7.653110  -0.102916   0.003354  -0.000140
    10  C   -0.206961   0.188385  -0.102916   5.502092   0.251536  -0.063886
    11  C    0.013815  -0.034132   0.003354   0.251536   4.855194   0.293298
    12  C   -0.003518   0.006336  -0.000140  -0.063886   0.293298   5.116029
    13  O    0.000164   0.004581  -0.000015  -0.033113  -0.088142   0.283923
    14  C    0.004599  -0.025172   0.002630   0.287276   0.009394  -0.072634
    15  H   -0.001111   0.000332   0.000001  -0.000685  -0.001220   0.017864
    16  H    0.005891  -0.000257  -0.000002  -0.000618   0.000038  -0.000211
    17  H   -0.007698   0.006791   0.000225  -0.001777   0.000307   0.000349
    18  H   -0.014570  -0.008491   0.005613   0.000942  -0.000052  -0.000028
    19  H   -0.007445   0.006317  -0.000185  -0.000203  -0.000003   0.000073
    20  H    0.305318   0.007357   0.004168   0.015631  -0.000815   0.000115
    21  H    0.308471   0.001865   0.004520   0.005052  -0.000365  -0.001059
    22  H    0.017837   0.007578   0.011979   0.262912   0.001938  -0.004824
    23  H    0.006169  -0.015737  -0.000043   0.016369   0.332769  -0.011597
    24  H   -0.001188   0.005466   0.000047   0.016440   0.305481   0.022082
    25  H    0.000025  -0.000531   0.000002   0.004848  -0.000077   0.316497
    26  H   -0.000008  -0.002168   0.000705  -0.018016   0.013730   0.002623
              13         14         15         16         17         18
     1  O    0.001438   0.000532   0.005330  -0.000002   0.000001  -0.000000
     2  C   -0.023053  -0.052981  -0.050194   0.000755  -0.000931   0.000067
     3  C    0.004224   0.012573   0.410120  -0.020514   0.014972  -0.000814
     4  C   -0.056783   0.174873  -0.056935   0.018419  -0.007772   0.006717
     5  C    0.004724  -0.062070  -0.020253   0.323147   0.336799  -0.018146
     6  C   -0.000092  -0.000085   0.001539   0.004871  -0.006537   0.354890
     7  C    0.000164   0.004599  -0.001111   0.005891  -0.007698  -0.014570
     8  C    0.004581  -0.025172   0.000332  -0.000257   0.006791  -0.008491
     9  O   -0.000015   0.002630   0.000001  -0.000002   0.000225   0.005613
    10  C   -0.033113   0.287276  -0.000685  -0.000618  -0.001777   0.000942
    11  C   -0.088142   0.009394  -0.001220   0.000038   0.000307  -0.000052
    12  C    0.283923  -0.072634   0.017864  -0.000211   0.000349  -0.000028
    13  O    7.987332   0.294495  -0.000840  -0.000192   0.000203   0.000005
    14  C    0.294495   4.884190   0.009194   0.009137  -0.011569   0.000130
    15  H   -0.000840   0.009194   0.695897   0.004640   0.000285  -0.000061
    16  H   -0.000192   0.009137   0.004640   0.670564  -0.027694   0.003509
    17  H    0.000203  -0.011569   0.000285  -0.027694   0.696788  -0.019623
    18  H    0.000005   0.000130  -0.000061   0.003509  -0.019623   0.694689
    19  H    0.000004  -0.001024   0.000055  -0.020340   0.007797  -0.026452
    20  H    0.000003   0.000119  -0.000040  -0.000397  -0.000078  -0.008541
    21  H    0.000002  -0.007579   0.001459   0.001161  -0.000520   0.009478
    22  H    0.002527  -0.004413   0.000027   0.000023  -0.000055  -0.000052
    23  H    0.004401  -0.011938  -0.000630  -0.000024  -0.000021  -0.000023
    24  H    0.002330  -0.000507   0.000047   0.000001   0.000002   0.000004
    25  H   -0.018014   0.003951  -0.000539  -0.000001   0.000000  -0.000000
    26  H   -0.021717   0.371638  -0.000343  -0.000126   0.008032  -0.000084
              19         20         21         22         23         24
     1  O   -0.000003  -0.000000   0.000006  -0.000008   0.002463  -0.000227
     2  C   -0.000340  -0.000028   0.001787   0.000478   0.000019   0.004072
     3  C    0.008356   0.000459  -0.012172  -0.000595  -0.002198  -0.001357
     4  C   -0.011639  -0.000599   0.035135   0.011963   0.001224   0.001878
     5  C    0.004103   0.010655  -0.027786  -0.000140   0.001172  -0.000088
     6  C    0.349523   0.001950   0.011118  -0.000805  -0.000064  -0.000008
     7  C   -0.007445   0.305318   0.308471   0.017837   0.006169  -0.001188
     8  C    0.006317   0.007357   0.001865   0.007578  -0.015737   0.005466
     9  O   -0.000185   0.004168   0.004520   0.011979  -0.000043   0.000047
    10  C   -0.000203   0.015631   0.005052   0.262912   0.016369   0.016440
    11  C   -0.000003  -0.000815  -0.000365   0.001938   0.332769   0.305481
    12  C    0.000073   0.000115  -0.001059  -0.004824  -0.011597   0.022082
    13  O    0.000004   0.000003   0.000002   0.002527   0.004401   0.002330
    14  C   -0.001024   0.000119  -0.007579  -0.004413  -0.011938  -0.000507
    15  H    0.000055  -0.000040   0.001459   0.000027  -0.000630   0.000047
    16  H   -0.020340  -0.000397   0.001161   0.000023  -0.000024   0.000001
    17  H    0.007797  -0.000078  -0.000520  -0.000055  -0.000021   0.000002
    18  H   -0.026452  -0.008541   0.009478  -0.000052  -0.000023   0.000004
    19  H    0.685404  -0.005093  -0.015328   0.000031   0.000052  -0.000000
    20  H   -0.005093   0.674964  -0.023359  -0.000665  -0.000584   0.000011
    21  H   -0.015328  -0.023359   0.694932  -0.000467   0.003026   0.000179
    22  H    0.000031  -0.000665  -0.000467   0.709763   0.005657  -0.018389
    23  H    0.000052  -0.000584   0.003026   0.005657   0.655038  -0.018778
    24  H   -0.000000   0.000011   0.000179  -0.018389  -0.018778   0.666339
    25  H    0.000000  -0.000000  -0.000028   0.000196   0.005470  -0.016114
    26  H    0.000014   0.000008  -0.000134  -0.012798  -0.000489  -0.000208
              25         26
     1  O    0.008940   0.000015
     2  C   -0.020029   0.000315
     3  C    0.015474   0.008794
     4  C   -0.000109  -0.036720
     5  C    0.000125  -0.006701
     6  C   -0.000005  -0.000416
     7  C    0.000025  -0.000008
     8  C   -0.000531  -0.002168
     9  O    0.000002   0.000705
    10  C    0.004848  -0.018016
    11  C   -0.000077   0.013730
    12  C    0.316497   0.002623
    13  O   -0.018014  -0.021717
    14  C    0.003951   0.371638
    15  H   -0.000539  -0.000343
    16  H   -0.000001  -0.000126
    17  H    0.000000   0.008032
    18  H   -0.000000  -0.000084
    19  H    0.000000   0.000014
    20  H   -0.000000   0.000008
    21  H   -0.000028  -0.000134
    22  H    0.000196  -0.012798
    23  H    0.005470  -0.000489
    24  H   -0.016114  -0.000208
    25  H    0.695640  -0.000359
    26  H   -0.000359   0.669549
 Mulliken charges:
               1
     1  O   -0.231772
     2  C    0.111298
     3  C   -0.047645
     4  C   -0.158676
     5  C    0.181494
     6  C   -0.010300
     7  C    0.130236
     8  C   -0.013753
     9  O   -0.216387
    10  C   -0.024508
    11  C    0.123711
    12  C    0.115593
    13  O   -0.348397
    14  C    0.185240
    15  H   -0.013940
    16  H    0.028223
    17  H    0.011722
    18  H    0.020894
    19  H    0.026324
    20  H    0.019441
    21  H    0.010608
    22  H    0.010302
    23  H    0.028298
    24  H    0.032487
    25  H    0.004639
    26  H    0.024868
 Sum of Mulliken charges =  -0.00000
 Mulliken charges with hydrogens summed into heavy atoms:
               1
     1  O   -0.231772
     2  C    0.111298
     3  C   -0.061584
     4  C   -0.158676
     5  C    0.221439
     6  C    0.036918
     7  C    0.160285
     8  C   -0.013753
     9  O   -0.216387
    10  C   -0.014206
    11  C    0.184495
    12  C    0.120232
    13  O   -0.348397
    14  C    0.210108
 APT charges:
               1
     1  O    0.754667
     2  C   -0.887393
     3  C   -0.511215
     4  C   -0.359473
     5  C   -0.462819
     6  C   -0.729167
     7  C   -0.438572
     8  C   -1.103160
     9  O    0.718115
    10  C   -0.466678
    11  C   -0.413710
    12  C   -0.474050
    13  O   -0.130052
    14  C   -0.360376
    15  H    0.422523
    16  H    0.500628
    17  H    0.321656
    18  H    0.481522
    19  H    0.420119
    20  H    0.555428
    21  H    0.037714
    22  H    0.418096
    23  H    0.150310
    24  H    0.544495
    25  H    0.575038
    26  H    0.436355
 Sum of APT charges =  -0.00000
 APT charges with hydrogens summed into heavy atoms:
               1
     1  O    0.754667
     2  C   -0.887393
     3  C   -0.088691
     4  C   -0.359473
     5  C    0.359465
     6  C    0.172474
     7  C    0.154570
     8  C   -1.103160
     9  O    0.718115
    10  C   -0.048582
    11  C    0.281094
    12  C    0.100988
    13  O   -0.130052
    14  C    0.075979
 Electronic spatial extent (au):  <R**2>=           2220.9963
 Charge=             -0.0000 electrons
 Dipole moment (field-independent basis, Debye):
    X=              2.5255    Y=              1.3861    Z=              0.4119  Tot=              2.9102
 Quadrupole moment (field-independent basis, Debye-Ang):
   XX=           -102.1735   YY=            -78.4468   ZZ=            -81.6648
   XY=             13.1268   XZ=             -1.8782   YZ=              3.1557
 Traceless Quadrupole moment (field-independent basis, Debye-Ang):
   XX=            -14.7451   YY=              8.9815   ZZ=              5.7636
   XY=             13.1268   XZ=             -1.8782   YZ=              3.1557
 Octapole moment (field-independent basis, Debye-Ang**2):
  XXX=             10.1341  YYY=              2.7573  ZZZ=              0.3484  XYY=             -8.3397
  XXY=              6.2087  XXZ=             17.0499  XZZ=             18.0549  YZZ=             -2.6567
  YYZ=             -0.9729  XYZ=             -9.8151
 Hexadecapole moment (field-independent basis, Debye-Ang**3):
 XXXX=          -1783.5788 YYYY=           -787.3572 ZZZZ=           -441.4042 XXXY=            115.6749
 XXXZ=            -58.0163 YYYX=             19.1025 YYYZ=             -2.5295 ZZZX=              4.0676
 ZZZY=             -1.9094 XXYY=           -432.2929 XXZZ=           -360.1381 YYZZ=           -215.6035
 XXYZ=             17.5953 YYXZ=              4.1479 ZZXY=             -0.9939
 N-N= 9.477799774824D+02 E-N=-3.412262530087D+03  KE= 6.455397195116D+02
  Exact polarizability:   0.000   0.000   0.000   0.000   0.000   0.000
 Approx polarizability: 209.598 -13.612 156.841  32.849  -9.803 153.303
 No NMR shielding tensors so no spin-rotation constants.
 Leave Link  601 at Tue Jan 20 11:31:45 2026, MaxMem=  4294967296 cpu:               2.2 elap:               0.2
 (Enter /root/g16/l701.exe)
 ... and contract with generalized density number  0.
 Compute integral second derivatives.
 R6Disp: Adding Grimme-D3(BJ) dispersion energy 2nd derivatives to the Hessian.
   1 Symmetry operations used in ECPInt.
 ECPInt:  NShTT=    7260 NPrTT=   26324 LenC2=    7137 LenP2D=   20010.
 LDataN:  DoStor=T MaxTD1= 6 Len=  172
 D2PCM: PCM CHGder 2nd derivatives, FixD1E=F FixD2E=F DoIter=F DoCFld=F I1PDM=0
 GePol: Maximum number of non-zero 2nd derivatives   =     229
 Leave Link  701 at Tue Jan 20 11:31:47 2026, MaxMem=  4294967296 cpu:              41.3 elap:               2.6
 (Enter /root/g16/l702.exe)
 L702 exits ... SP integral derivatives will be done elsewhere.
 Leave Link  702 at Tue Jan 20 11:31:47 2026, MaxMem=  4294967296 cpu:               0.1 elap:               0.0
 (Enter /root/g16/l703.exe)
 Integral derivatives from FoFJK, PRISM(SPDF).
 Compute integral second derivatives, UseDBF=F ICtDFT=           0.
 Calling FoFJK, ICntrl=    100147 FMM=F ISym2X=0 I1Cent= 0 IOpClX= 0 NMat=1 NMatS=1 NMatT=0.
 FoFJK:  IHMeth= 1 ICntrl=  100147 DoSepK=F KAlg= 0 I1Cent=           0 FoldK=F
 IRaf=         0 NMat=       1 IRICut=       1 DoRegI=T DoRafI=F ISym2E= 0 IDoP0=0 IntGTp=1.
 FoFCou: FMM=F IPFlag=           0 FMFlag=      100000 FMFlg1=         800
         NFxFlg=           0 DoJE=F BraDBF=F KetDBF=F FulRan=T
         wScrn=  0.000000 ICntrl=    100147 IOpCl=  0 I1Cent=           0 NGrid=           0
         NMat0=    1 NMatS0=      1 NMatT0=    0 NMatD0=    1 NMtDS0=    0 NMtDT0=    0
 Symmetry not used in FoFCou.
 Leave Link  703 at Tue Jan 20 11:32:26 2026, MaxMem=  4294967296 cpu:             615.9 elap:              38.5
 (Enter /root/g16/l716.exe)
 Dipole        = 9.93596037D-01 5.45349966D-01 1.62070196D-01
 Polarizability= 0.00000000D+00 0.00000000D+00 0.00000000D+00
                 0.00000000D+00 0.00000000D+00 0.00000000D+00
 ***** Axes restored to original set *****
 -------------------------------------------------------------------
 Center     Atomic                   Forces (Hartrees/Bohr)
 Number     Number              X              Y              Z
 -------------------------------------------------------------------
      1        8           0.005713888    0.001398151    0.005068067
      2        6           0.000535078   -0.004352345   -0.006577017
      3        6           0.004709638    0.004546953   -0.000523923
      4        6          -0.001932203    0.005884671   -0.009509346
      5        6           0.001163096   -0.002869590    0.004446116
      6        6           0.004182158   -0.003305409   -0.000656051
      7        6          -0.007573229    0.001559792   -0.001917071
      8        6           0.009169928   -0.001734767    0.003496756
      9        8          -0.009821186   -0.005280634   -0.002606338
     10        6          -0.000775642   -0.001293764   -0.005373133
     11        6           0.001968325    0.003206208   -0.002525637
     12        6           0.004281668   -0.002419961    0.005389210
     13        8           0.001082906    0.000502226   -0.002864670
     14        6          -0.000487364   -0.002475695    0.000276122
     15        1          -0.002034720    0.006922853    0.006568859
     16        1          -0.000259231    0.006491956   -0.000580690
     17        1          -0.002618829    0.000433641   -0.005710073
     18        1          -0.006721498   -0.000306274   -0.000685403
     19        1          -0.001462369    0.004268693    0.004709080
     20        1          -0.002150835   -0.003332468    0.003827559
     21        1           0.003559689    0.000078672    0.003384773
     22        1          -0.002086866   -0.001512178   -0.001906669
     23        1          -0.000602451   -0.000897330    0.006462676
     24        1           0.001466045   -0.006012057    0.000018359
     25        1           0.004662852   -0.000727524    0.000930180
     26        1          -0.003968847    0.001226177   -0.003141737
 -------------------------------------------------------------------
 Cartesian Forces:  Max     0.009821186 RMS     0.003970697
 FormGI is forming the generalized inverse of G from B-inverse, IUseBI=4.
 Leave Link  716 at Tue Jan 20 11:32:26 2026, MaxMem=  4294967296 cpu:               0.3 elap:               0.0
 (Enter /root/g16/l103.exe)

 GradGradGradGradGradGradGradGradGradGradGradGradGradGradGradGradGradGrad
 Berny optimization.
 Red2BG is reusing G-inverse.
 Internal  Forces:  Max     0.011514583 RMS     0.002963746
 Search for a local minimum.
 Step number   1 out of a maximum of  156
[...]
 0388540,0.00338784,0.00078900,-0.00078359,-0.00167199,-0.00010075,0.00
 076627,0.00017270,-0.00002482,-0.00029010,-0.00006979,-0.00000200,0.00
 002448,0.00007133,0.00002313,-0.00008855,0.00002608,-0.00002261,0.0001
 7710,0.00026807,0.00022962,-0.00013780,-0.00044030,-0.00006969,-0.0001
 2454,0.00010817,0.00097542,0.00054568,-0.00037884,0.00039033,-0.000014
 15,0.00010388,0.00832093,-0.00479252,-0.00362620,0.22746913,-0.0005683
 6,0.00009970,0.00001953,0.00081979,-0.00040604,-0.00072857,-0.00119119
 ,0.00122663,-0.00020635,-0.00207967,-0.00370134,0.00129091,-0.02109941
 ,0.00949128,0.00902252,0.10574112,-0.10813033,-0.05220870,0.01712714,-
 0.01435849,-0.00723031,0.00026936,0.00105096,0.00522072,-0.00026902,-0
 .00230658,-0.00102359,-0.00021155,0.00016544,-0.00038463,-0.00027033,0
 .00005942,-0.00003708,0.00001102,-0.00011574,0.00003832,0.00022332,0.0
 0031422,0.00013905,-0.00009513,-0.00038468,-0.00030145,-0.00004965,-0.
 00014331,0.00012141,0.00012191,0.00123123,0.00004715,0.00076621,0.0004
 3543,-0.00007957,0.00983790,-0.00624329,-0.00483073,-0.10920831,0.1207
 2660,0.00023240,-0.00003671,0.00006940,-0.00029112,0.00017760,0.000083
 69,0.00039675,-0.00024469,-0.00018035,-0.00002249,0.00084561,0.0003778
 2,0.00258989,-0.00331568,-0.00160238,0.08370234,-0.05250462,-0.0865145
 1,-0.01793634,0.01452334,0.00776951,-0.00115562,-0.00011660,-0.0040938
 2,0.00046380,0.00199577,0.00071127,0.00008146,0.00023319,0.00030314,0.
 00007198,-0.00008877,0.00001421,0.00001663,0.00009227,-0.00011737,0.00
 016968,-0.00020012,0.00019462,-0.00041541,0.00042340,-0.00014879,0.000
 00167,0.00001155,0.00000823,-0.00048378,0.00038491,0.00102227,-0.00006
 397,-0.00015722,-0.00015357,0.02129413,-0.01268449,-0.01029978,-0.0885
 7575,0.05140276,0.09062736,-0.00016928,-0.00001072,-0.00011992,0.00026
 003,-0.00001724,0.00013920,0.00007514,-0.00010658,0.00027456,-0.000348
 48,0.00019379,-0.00011238,0.00005485,0.00141758,-0.00146752,0.00969259
 ,0.00550050,-0.00576257,-0.22049029,-0.07662314,0.10677510,-0.01410139
 ,-0.00694893,0.00824744,0.00280400,-0.00076994,-0.00241664,0.00104462,
 0.00233558,0.00096936,0.00032936,0.00002740,0.00002527,0.00006867,-0.0
 0003114,-0.00003321,-0.00017986,-0.00014939,0.00005704,0.00027568,0.00
 022224,-0.00038993,-0.00000068,0.00000722,-0.00002547,-0.00000657,0.00
 006225,0.00000527,0.00028444,0.00039925,-0.00018155,-0.00005287,-0.000
 38791,0.00004112,0.00135605,-0.00002327,-0.00005102,0.23376446,-0.0001
 9219,0.00007844,-0.00002592,0.00030643,-0.00029910,-0.00011992,-0.0002
 7967,0.00028759,0.00007011,0.00101194,-0.00050641,-0.00007272,0.001429
 81,-0.00176021,0.00388901,-0.01623358,-0.00916598,0.00844223,-0.080284
 15,-0.07950367,0.05085842,0.02455885,0.00635233,-0.01472778,-0.0010014
 6,0.00197570,0.00015906,0.00032519,-0.00395025,-0.00158416,-0.00008345
 ,0.00003891,-0.00013059,0.00001715,-0.00005101,0.00004825,0.00000402,0
 .00018980,0.00004171,-0.00026711,-0.00022955,0.00017313,0.00000922,0.0
 0000560,0.00002176,0.00003700,0.00014155,-0.00013506,-0.00096147,-0.00
 096463,0.00037214,0.00010130,0.00013270,0.00033747,-0.00054555,0.00051
 605,-0.00016887,0.08000743,0.09031411,0.00010516,0.00002461,0.00004340
 ,-0.00008682,-0.00002910,-0.00002315,0.00024507,-0.00012101,0.00033676
 ,-0.00095886,-0.00019527,-0.00007695,-0.00169069,0.00102075,-0.0019588
 0,0.01458626,0.00655972,-0.00776082,0.10562223,0.04851821,-0.11100100,
 0.01646809,0.00350931,-0.01104038,-0.00348861,0.00259932,0.00104044,0.
 00065531,-0.00235585,0.00032915,0.00024940,-0.00000931,-0.00033302,0.0
 0001671,-0.00004715,-0.00000806,0.00018992,0.00002947,-0.00004226,-0.0
 0036356,-0.00010670,0.00028055,0.00001351,0.00002949,0.00000927,0.0000
 7496,0.00017927,0.00003201,0.00059816,0.00063495,-0.00004425,-0.000078
 19,-0.00019027,-0.00030397,-0.00000647,-0.00043043,0.00123096,-0.11561
 602,-0.05288727,0.11811663,0.00027246,-0.00001326,0.00007825,-0.000407
 79,0.00011695,0.00008451,0.00000024,-0.00037202,0.00024661,-0.00016337
 ,-0.00050825,0.00085712,0.00013418,-0.00077992,0.00140612,-0.00394030,
 -0.00343546,-0.00626050,-0.14651508,-0.06077528,-0.10655256,0.01328753
 ,0.00308211,0.01076574,-0.00147894,0.00212427,-0.00197644,-0.00206041,
 -0.00083621,-0.00199402,-0.00018282,0.00007011,0.00057116,-0.00021700,
 0.00017914,-0.00004440,0.00011411,-0.00005578,-0.00004850,-0.00006017,
 0.00014733,0.00019299,0.00001448,0.00001652,-0.00000836,0.00029839,0.0
 0028721,-0.00011766,-0.00012234,0.00005017,-0.00000220,-0.00016397,0.0
 0129033,-0.00037117,-0.00016672,-0.00000346,0.00007149,-0.01404262,-0.
 00883237,-0.01709612,0.15562164,0.00007120,-0.00000500,0.00003142,-0.0
 0005334,0.00001938,-0.00002276,-0.00006431,-0.00004022,0.00031378,-0.0
 0073915,-0.00019791,0.00045876,-0.00005072,0.00173055,0.00054509,0.014
 47005,0.00885533,0.01909371,-0.06606703,-0.08145780,-0.07522572,-0.020
 09957,-0.01038677,-0.01523077,0.00515683,-0.00313606,0.00146022,0.0019
 4382,0.00038384,0.00151643,0.00018758,-0.00001057,-0.00053846,0.000115
 98,-0.00002678,0.00000115,0.00009253,-0.00004290,-0.00005486,0.0000540
 8,-0.00005292,0.00014421,-0.00001349,0.00000060,-0.00000512,0.00017524
 ,-0.00030389,-0.00042830,0.00024495,0.00021941,-0.00021974,0.00148610,
 -0.00325340,0.00289326,-0.00007819,0.00037782,-0.00047560,-0.00500633,
 -0.00374544,-0.00660769,0.06824543,0.09104221,-0.00036941,0.00007559,-
 0.00014958,0.00067110,-0.00037952,0.00002286,-0.00002506,0.00013680,0.
 00034974,0.00015897,-0.00003971,-0.00040869,-0.00043388,-0.00094761,0.
 00116387,-0.01211830,-0.00559035,-0.01678782,-0.10890332,-0.06995783,-
 0.16062542,-0.00993795,-0.00492981,-0.00932849,0.00118723,-0.00045304,
 0.00026937,0.00153647,0.00011353,0.00115952,0.00015106,0.00005199,-0.0
 0037351,0.00009596,-0.00006985,0.00001308,-0.00000765,0.00010427,0.000
 09670,-0.00013858,-0.00016636,-0.00027157,0.00001648,0.00004738,-0.000
 00621,0.00030207,0.00046099,-0.00015137,-0.00018455,-0.00024583,0.0003
 1829,-0.00156024,0.00343014,-0.00167040,0.00004946,0.00013196,0.000236
 42,0.00915988,0.00614025,0.01136307,0.12048130,0.07212811,0.17426339,-
 0.00019593,-0.00014456,-0.00016812,0.00006063,0.00058874,0.00015857,0.
 00016606,0.00023584,-0.00002128,0.00043439,-0.00002190,0.00018460,-0.0
 0000917,-0.00019572,-0.00007200,0.00003850,-0.00005014,0.00006173,-0.0
 0350234,-0.00180629,0.00113123,0.00055213,0.01720313,0.02124147,0.0008
 5847,0.00097648,-0.00255938,-0.04726380,-0.03438335,-0.02885098,-0.008
 60031,-0.01573527,-0.02110605,-0.00081375,0.00040521,-0.00147170,0.001
 10456,-0.00029671,0.00088593,-0.00063390,-0.00104037,-0.00153257,0.000
 00544,-0.00006990,0.00010177,0.00002734,-0.00000510,-0.00000620,0.0000
 3988,0.00002266,-0.00001635,-0.00002681,0.00008416,-0.00006970,0.00001
 797,0.00008378,-0.00006284,-0.00064474,0.00082324,0.00038754,0.0004086
 8,-0.00026759,-0.00024941,0.06037109,-0.00092689,0.00025206,-0.0002932
 3,0.00147206,-0.00123991,0.00020184,-0.00085206,-0.00013668,-0.0004738
 5,-0.00146899,-0.00212278,0.00455439,-0.00023938,0.00007496,-0.0003489
 0,-0.00019620,-0.00001014,-0.00005546,0.00011116,0.00042226,0.00016467
 ,0.00216454,0.00019440,-0.00028681,-0.00169219,0.00009062,0.00229557,-
 0.03677957,-0.17608251,-0.13420915,0.00471118,0.00469506,0.00678163,-0
 .00003303,-0.00018733,0.00013739,0.00116923,0.00270424,-0.00000847,-0.
 00366222,-0.02450485,-0.01722612,-0.00000036,0.00028358,-0.00053026,0.
 00016275,-0.00004615,-0.00011368,-0.00000847,0.00003216,0.00002640,0.0
 0003267,0.00003620,0.00004450,0.00006615,0.00006411,-0.00002017,-0.000
 00369,0.00005249,-0.00016301,-0.00014476,0.00000215,0.00003255,0.03415
 004,0.19252644,0.00050276,-0.00017703,0.00017907,-0.00075476,0.0008812
 6,-0.00009228,0.00073491,0.00016465,0.00082132,0.00139402,0.00145572,-
 0.00224395,0.00014552,-0.00009809,0.00018930,0.00001842,0.00011433,-0.
 00023391,0.00256250,0.00193104,-0.00098541,-0.00263491,-0.01749547,-0.
 01622558,-0.00000735,0.00120844,0.00314860,-0.03003507,-0.13415527,-0.
 17828046,-0.00438352,-0.00625619,-0.00892021,-0.00006572,0.00027538,-0
 .00069120,-0.00140484,-0.00040910,0.00066108,0.00331647,0.01563612,0.0
 0957268,0.00001189,-0.00018293,0.00034701,-0.00007258,0.00000303,0.000
 06711,-0.00000226,-0.00005305,0.00000372,0.00001507,-0.00006500,0.0000
 6225,-0.00002624,-0.00013011,0.00010446,0.00051676,-0.00073256,-0.0002
 8408,-0.00031082,0.00026366,0.00016795,0.03261662,0.13816189,0.1902535
 1,-0.00041685,0.00034143,-0.00040169,0.00192617,-0.00037015,0.00100286
 ,-0.00047356,0.00012210,-0.00001249,0.00032734,0.00030447,0.00006074,0
 .00003342,-0.00001619,-0.00002277,0.00003657,0.00007279,-0.00012936,-0
 .00050198,-0.00012997,-0.00028036,0.00114817,0.00002709,-0.00228516,0.
 00007943,-0.00045631,0.00057296,-0.00170403,-0.00586039,-0.02644894,-0
 .04586534,0.00037736,-0.00140870,0.00095570,0.00441608,0.01700004,-0.0
 0089560,-0.00265436,0.00245980,-0.00185222,-0.00004246,-0.00075656,0.0
 0005425,-0.00007691,0.00003866,0.00000391,-0.00000538,0.00000359,-0.00
 000374,-0.00002326,-0.00000427,0.00002851,-0.00000669,0.00005229,0.000
 02268,-0.00002768,0.00004060,0.00008103,0.00001269,0.00007949,-0.00048
 580,0.00013920,0.00013050,-0.00388437,0.00148099,-0.00224835,0.0517718
 2,0.00021832,0.00007255,0.00010516,-0.00056622,-0.00066509,0.00146698,
 -0.00006643,-0.00045119,0.00012799,0.00026908,0.00004903,-0.00001885,-
 0.00009484,-0.00006528,-0.00012746,0.00000870,0.00003250,0.00005027,-0
 .00020295,-0.00015051,0.00014706,-0.00017521,0.00128252,-0.00020425,0.
 00020081,-0.00028019,0.00013895,-0.00177522,-0.00026034,0.00423695,0.0
 0036839,-0.05368337,-0.04411797,0.00212850,0.00412785,0.01826037,0.000
 09576,-0.00457860,0.00471763,-0.00112521,0.00010043,0.00116450,-0.0000
 0148,0.00009228,-0.00003332,0.00001393,-0.00000967,0.00000402,-0.00004
 284,0.00002947,0.00001725,-0.00001172,-0.00000670,-0.00001517,-0.00002
 524,-0.00000379,-0.00000916,-0.00009809,0.00005038,0.00000189,0.000310
 27,-0.00004862,-0.00017549,-0.00038425,0.00039672,0.00005716,0.0018999
 0,0.05711369,0.00077286,0.00009831,0.00092324,-0.00135751,-0.00091747,
 -0.00148084,0.00060143,0.00010111,0.00056553,-0.00053493,-0.00044873,-
 0.00029144,0.00007862,0.00003825,0.00009103,-0.00000684,-0.00002208,0.
 00000338,-0.00048294,-0.00025344,0.00001145,0.00128253,0.00147792,-0.0
 0075156,-0.00018174,-0.00082859,0.00061244,-0.00078906,-0.00204133,-0.
 00526646,-0.00206908,-0.04160748,-0.31137530,-0.00076796,-0.00212651,-
 0.00790975,-0.00015681,0.00256779,-0.00166631,0.00104759,-0.00031688,-
 0.00072250,-0.00001626,0.00007585,0.00000200,-0.00001871,0.00002493,0.
 00000372,0.00005013,-0.00002245,-0.00000008,0.00004269,-0.00001344,0.0
 0002839,0.00001911,0.00002288,0.00000366,-0.00006709,0.00006966,0.0000
 4548,0.00011693,-0.00006814,0.00011447,-0.00093834,0.00073574,-0.00002
 780,0.00310917,0.04272320,0.33221772,-0.00061454,-0.00046104,-0.001403
 54,-0.00149042,0.00008977,0.00405872,0.00103849,-0.00008825,-0.0003354
 1,-0.00048487,-0.00094713,-0.00080018,0.00000976,-0.00015204,0.0001961
 1,-0.00002228,-0.00018791,0.00004758,0.00026092,0.00017766,0.00072735,
 0.00088235,0.00230701,-0.00256573,-0.00010253,-0.00147625,0.00020357,-
 0.01208398,0.02499190,0.00254572,-0.06421891,0.07795317,0.01760487,0.0
 0236079,-0.02262728,-0.00495808,0.00174199,0.00017659,0.00094101,-0.00
 497153,0.00024061,-0.00034229,0.00017897,-0.00002898,-0.00008755,-0.00
 001325,0.00001705,0.00001595,0.00008929,-0.00002499,-0.00000385,0.0000
 7433,-0.00001703,0.00000772,0.00000447,0.00004271,0.00001377,-0.000036
 22,0.00002084,0.00007425,-0.00014043,0.00006651,0.00004593,0.00150756,
 0.00006338,0.00043844,0.00039269,-0.00036665,-0.00000700,0.07436150,-0
 .00048878,-0.00065964,-0.00115889,-0.00160484,0.00104694,0.00342538,0.
 00056158,0.00006714,-0.00013358,-0.00024966,0.00015213,-0.00012376,0.0
 0004020,-0.00007758,0.00017134,-0.00005851,-0.00007027,-0.00002145,0.0
 0009446,0.00009862,0.00010156,0.00004363,-0.00003794,0.00048460,-0.000
 04110,0.00004944,-0.00022197,-0.00114831,0.00011831,-0.00095985,0.0787
 0014,-0.29383713,-0.05121391,0.00328853,-0.01671572,-0.00540773,0.0013
 0042,0.00016056,0.00115397,-0.00067940,0.00000087,0.00051613,0.0000812
 6,-0.00003370,-0.00008995,0.00001675,-0.00001309,-0.00001773,0.0000701
 4,-0.00001838,-0.00002967,-0.00000821,0.00000823,0.00000404,0.00002235
 ,0.00001542,-0.00000457,0.00001855,-0.00000630,-0.00001467,-0.00006104
 ,0.00002661,0.00002874,-0.00035282,0.00134844,-0.00002860,0.00083367,-
 0.00245980,-0.00028164,-0.08060752,0.30959399,0.00060555,0.00017769,0.
 00097018,0.00046988,0.00054145,-0.00227934,0.00017706,-0.00032691,0.00
 066405,-0.00035678,-0.00048500,-0.00056972,-0.00000968,0.00006016,-0.0
 0004458,0.00004033,-0.00003254,-0.00000050,-0.00011710,-0.00007443,0.0
 0009408,-0.00050286,0.00045765,-0.00061646,-0.00007641,-0.00000809,0.0
 0004146,-0.00580609,0.01129980,0.00080046,0.01793895,-0.05412313,-0.05
 673012,-0.00391530,0.01574436,0.00397977,-0.00006883,-0.00055646,-0.00
 086412,-0.00167345,0.00139230,-0.00108324,-0.00002457,0.00005467,0.000
 00063,-0.00000704,0.00000418,0.00000987,-0.00000277,-0.00000579,0.0000
 2342,0.00003221,-0.00001037,0.00001772,0.00000464,0.00000433,0.0000194
 2,-0.00000664,0.00001554,0.00004907,-0.00007383,0.00008929,0.00008675,
 -0.00029478,0.00100148,0.00113642,0.00931886,-0.02902423,-0.00468878,-
 0.01533723,0.05380508,0.05875950,0.00159713,0.00025919,0.00097671,0.00
 386618,-0.00324007,-0.00262855,0.00014256,-0.00099144,-0.00065597,-0.0
 0025255,-0.00027438,-0.00010695,0.00001175,0.00000556,0.00022774,0.000
 00454,0.00001658,0.00001735,-0.00000517,0.00001682,0.00007134,0.000235
 89,-0.00001528,-0.00068669,-0.00027491,-0.00023691,0.00030957,-0.00086
 200,0.00000061,0.00062286,-0.00822124,0.00442028,0.00459592,-0.2570078
 1,0.09194629,0.07566304,-0.01709752,0.00583348,-0.00093007,0.00101593,
 0.00124695,-0.00284328,0.00026198,-0.00018574,0.00007889,-0.00006222,0
 .00005714,0.00004702,0.00002285,-0.00001741,-0.00000818,0.00003969,-0.
 00000567,0.00000616,-0.00001944,0.00000900,0.00001064,-0.00002319,0.00
 000840,0.00002207,0.00000832,0.00001128,-0.00000554,-0.00008454,-0.000
 01296,-0.00004932,-0.00105932,-0.00065693,0.00033231,0.00088817,0.0002
 3449,-0.00045202,0.27759910,-0.00178968,0.00274735,0.00333990,0.025029
 24,-0.01047053,-0.00941232,-0.00163535,-0.00339296,-0.00264590,-0.0005
 4441,0.00032761,-0.00034337,0.00004365,0.00012370,0.00001409,0.0000215
 9,-0.00013493,0.00008159,0.00005324,0.00009198,0.00022476,0.00014658,0
 .00019171,-0.00120569,-0.00021916,-0.00033094,0.00031765,-0.00329936,-
 0.00099470,0.00151822,-0.01801612,0.00765389,0.00621750,0.09084041,-0.
 08566057,-0.03449102,0.00924777,-0.00231836,0.00084056,-0.00152812,-0.
 00082006,0.00189192,0.00083761,-0.00090620,0.00025373,-0.00002157,-0.0
 0001140,-0.00001380,0.00004702,-0.00001118,0.00001271,0.00001875,-0.00
 000037,-0.00002070,0.00002807,0.00004570,-0.00002084,-0.00000627,0.000
 03011,0.00001823,-0.00006503,0.00002566,0.00004128,-0.00013995,0.00004
 468,-0.00009319,-0.00082698,-0.00046793,0.00078011,0.00015524,0.001446
 67,-0.00036907,-0.09867742,0.09268881,-0.00115866,0.00202588,0.0013149
 8,0.01770744,-0.00602241,-0.00281534,-0.00103049,-0.00297193,-0.001462
 73,-0.00101356,-0.00019054,-0.00039423,0.00016001,0.00022025,0.0002027
 2,-0.00001995,-0.00000268,-0.00007250,-0.00003106,-0.00003820,-0.00016
 678,0.00004572,-0.00022800,0.00066744,0.00004604,0.00012475,-0.0001380
 6,0.00112355,0.00091334,-0.00152303,0.01048092,-0.00465789,-0.00134964
 ,0.08444152,-0.03761589,-0.07836079,-0.03301976,0.01264159,0.00713243,
 -0.00196813,0.00250421,-0.00493742,0.00071322,-0.00058448,0.00017416,-
 0.00007991,0.00006230,0.00002839,0.00005187,-0.00004917,-0.00001176,0.
 00004200,0.00002441,0.00003399,0.00003210,0.00002138,0.00002675,0.0000
 1103,-0.00000818,-0.00001479,0.00001990,-0.00000936,0.00000790,0.00011
 007,0.00005026,0.00004975,0.00030168,0.00047569,-0.00038284,-0.0006499
 5,-0.00010401,0.00052953,-0.07493236,0.03329151,0.08085773,-0.00022312
 ,-0.00070297,-0.00037608,-0.00018450,0.00147011,0.00055334,0.00136081,
 0.00086766,0.00023990,0.00184493,-0.00196132,-0.00123814,0.00002723,-0
 .00006715,0.00087310,-0.00021769,0.00005700,0.00032893,0.00003564,-0.0
 0001267,0.00005259,-0.00010406,0.00020145,-0.00000443,0.00008668,0.000
 03712,-0.00017572,0.00711661,-0.00138412,0.00608519,-0.00072000,-0.001
 90660,0.00113456,-0.00402203,-0.00084971,0.00381355,-0.02858966,0.0083
 8974,-0.02229613,-0.14470056,0.02122738,-0.12423611,0.00021839,0.00006
 392,-0.00012071,-0.00005134,-0.00015419,-0.00000054,0.00026651,-0.0001
 7467,-0.00001176,-0.00075744,0.00022086,0.00073251,0.00001904,0.000043
 77,-0.00009889,0.00000527,0.00000751,-0.00000276,-0.00001229,-0.000021
 08,-0.00005251,0.00006694,0.00043660,-0.00027765,0.00028110,0.00007959
 ,-0.00005911,0.00038768,-0.00000596,0.00013791,-0.00072418,0.00030025,
 -0.00138325,0.16859004,-0.00032598,0.00031361,0.00017200,0.00138807,-0
 .00029018,-0.00049195,0.00119518,-0.00331629,-0.00180017,-0.01630716,0
 .00264546,-0.02250944,-0.00049629,0.00100595,0.00041055,0.00030735,0.0
 0006518,0.00005609,-0.00007990,0.00000295,0.00023220,0.00118593,-0.000
 25628,-0.00011469,-0.00057232,-0.00042028,0.00005555,0.01415106,-0.002
 93995,0.01867731,0.00047894,-0.00290102,0.00218888,0.00059316,-0.00045
 206,0.00064943,0.00284175,-0.00036391,0.00299172,0.02153834,-0.0506308
 1,0.02404478,-0.00131748,-0.00091135,0.00042769,-0.00019097,0.00001604
 ,0.00033038,0.00011571,-0.00044237,0.00003128,-0.00000246,-0.00003129,
 -0.00033872,-0.00001468,-0.00002642,-0.00004228,-0.00000917,0.00001678
 ,0.00003252,-0.00003697,0.00002472,0.00003181,0.00032066,0.00110980,-0
 .00027610,0.00046893,-0.00021634,0.00023241,0.00068264,-0.00020383,0.0
 0036805,0.00024815,0.00010226,0.00012717,-0.02616249,0.05809964,-0.000
 66193,0.00030455,-0.00021348,0.00158393,-0.00063063,-0.00007958,0.0008
 6742,-0.00203256,-0.00146670,-0.01185322,0.00186774,-0.01361143,-0.000
 70197,0.00019953,0.00031330,-0.00033853,0.00014634,-0.00024957,0.00000
 610,0.00006366,-0.00020938,-0.00073462,0.00036956,0.00044433,0.0003829
 0,0.00015938,-0.00018130,-0.00781764,0.00053738,-0.00852020,0.00087488
 ,0.00182307,-0.00026070,0.00339011,-0.00053549,-0.00013793,0.01186961,
 -0.00240543,0.01440700,-0.13390248,0.02725156,-0.21951213,-0.00089351,
 -0.00058728,0.00029057,0.00000060,-0.00001681,0.00023169,0.00035662,-0
 .00054142,0.00001630,0.00087247,0.00003803,-0.00002346,0.00006992,0.00
 010862,0.00030734,0.00002792,-0.00004569,0.00001474,-0.00003555,-0.000
 05257,0.00013967,0.00054017,-0.00045919,0.00122065,-0.00017258,0.00003
 084,-0.00005884,-0.00043018,0.00012114,-0.00030549,0.00031733,-0.00022
 788,0.00060415,0.13638224,-0.02548646,0.22684046\\0.00000377,-0.000004
 56,-0.00000933,0.00000097,-0.00000265,-0.00000638,0.00000429,-0.000001
 15,-0.00000622,0.00000287,0.00000223,-0.00000657,0.00000491,-0.0000007
 1,0.00000474,-0.00000146,0.00000336,0.00000676,0.00000042,-0.00000108,
 0.00001004,0.00000382,0.00000303,0.00000095,-0.00000358,0.00000290,0.0
 0000478,0.00000214,0.00000011,0.00000595,-0.00000166,-0.00000268,-0.00
 000618,-0.00000210,-0.00000323,-0.00000568,-0.00000582,-0.00000162,-0.
 00000466,-0.00000386,-0.00000045,-0.00000137,0.00000583,-0.00000191,-0
 .00000353,0.00000380,0.00000042,0.00000305,0.00000103,0.00000240,0.000
 00484,-0.00000256,0.00000375,0.00000829,0.00000349,0.00000363,0.000008
 95,0.00000203,0.00000432,0.00000583,0.00000186,0.00000048,0.00000249,-
 0.00000744,0.00000070,0.00000029,-0.00000067,-0.00000181,-0.00000431,-
 0.00000281,-0.00000201,-0.00000516,-0.00000391,-0.00000396,-0.00000885
 ,-0.00000535,0.00000048,0.00000127\\\@



 WE LOSE BECAUSE WE WIN

 GAMBLERS,

 RECOLLECTING WHICH,

 TOSS THEIR DICE AGAIN....


                          EMILY DICKINSON  BOLTS OF MELODY NO. 533
 Job cpu time:       0 days  0 hours 29 minutes 41.9 seconds.
 Elapsed time:       0 days  0 hours  1 minutes 51.9 seconds.
 File lengths (MBytes):  RWF=    260 Int=      0 D2E=      0 Chk=     19 Scr=      1
 Normal termination of Gaussian 16 at Tue Jan 20 11:40:09 2026.
