          26
 Energy =    -41.88051555 a.u.  #Cluster:    3
O           3.01942669      0.84119670      1.31030942
C           2.07527241      0.70032951      0.55827212
C           0.88659697      1.54776373      0.55429730
C          -0.13605527      1.28400031     -0.27258860
C          -1.44958423      1.98471499     -0.23260604
C          -2.57951124      0.95189036     -0.11566846
C          -2.24278455     -0.14452553      0.90468549
C          -1.56359543     -1.35846214      0.31387172
O          -1.96756950     -2.47285820      0.55726142
C          -0.34271253     -1.20491282     -0.57598976
C           0.96462876     -1.49069762      0.19750472
C           1.95750989     -0.46549519     -0.42052312
O           1.35051022     -0.02330705     -1.61590555
C          -0.00355228      0.15025535     -1.25027158
H           0.85937011      2.36653199      1.25884927
H          -1.47485257      2.66811786      0.61707487
H          -1.58429062      2.57030846     -1.14512196
H          -2.78323371      0.49400178     -1.08447794
H          -3.48745573      1.46494232      0.20117165
H          -3.15182522     -0.50683168      1.38938101
H          -1.59163967      0.26288597      1.68251751
H          -0.43622022     -1.95206225     -1.37081252
H           0.85054500     -1.32433743      1.26953909
H           1.30390613     -2.51196322      0.04418682
H           2.93560614     -0.88723531     -0.65409926
H          -0.57226193      0.33120678     -2.16322649
