 Entering Gaussian System, Link 0=g16
 Initial command:
 /root/g16/l1.exe "/tmp/gaussian_scratch_3334562/Gau-3334567.inp" -scrdir="/tmp/gaussian_scratch_3334562/"
 Entering Link 1 = /root/g16/l1.exe PID=   3334569.
  
 Copyright (c) 1988,1990,1992,1993,1995,1998,2003,2009,2016,
            Gaussian, Inc.  All Rights Reserved.
  
 This is part of the Gaussian(R) 16 program.  It is based on
 the Gaussian(R) 09 system (copyright 2009, Gaussian, Inc.),
 the Gaussian(R) 03 system (copyright 2003, Gaussian, Inc.),
 the Gaussian(R) 98 system (copyright 1998, Gaussian, Inc.),
 the Gaussian(R) 94 system (copyright 1995, Gaussian, Inc.),
 the Gaussian 92(TM) system (copyright 1992, Gaussian, Inc.),
 the Gaussian 90(TM) system (copyright 1990, Gaussian, Inc.),
 the Gaussian 88(TM) system (copyright 1988, Gaussian, Inc.),
 the Gaussian 86(TM) system (copyright 1986, Carnegie Mellon
 University), and the Gaussian 82(TM) system (copyright 1983,
 Carnegie Mellon University). Gaussian is a federally registered
 trademark of Gaussian, Inc.
  
 This software contains proprietary and confidential information,
 including trade secrets, belonging to Gaussian, Inc.
  
 This software is provided under written license and may be
 used, copied, transmitted, or stored only in accord with that
 written license.
  
 The following legend is applicable only to US Government
 contracts under FAR:
  
                    RESTRICTED RIGHTS LEGEND
  
 Use, reproduction and disclosure by the US Government is
 subject to restrictions as set forth in subparagraphs (a)
 and (c) of the Commercial Computer Software - Restricted
 Rights clause in FAR 52.227-19.
  
 Gaussian, Inc.
 340 Quinnipiac St., Bldg. 40, Wallingford CT 06492
  
  
 ---------------------------------------------------------------
 Warning -- This program may not be used in any manner that
 competes with the business of Gaussian, Inc. or will provide
 assistance to any competitor of Gaussian, Inc.  The licensee
 of this program is prohibited from giving any competitor of
 Gaussian, Inc. access to this program.  By using this program,
 the user acknowledges that Gaussian, Inc. is engaged in the
 business of creating and licensing software in the field of
 computational chemistry and represents and warrants to the
 licensee that it is not a competitor of Gaussian, Inc. and that
 it will not use this program in any manner prohibited above.
 ---------------------------------------------------------------
  

 Cite this work as:
 Gaussian 16, Revision A.03,
 M. J. Frisch, G. W. Trucks, H. B. Schlegel, G. E. Scuseria, 
 M. A. Robb, J. R. Cheeseman, G. Scalmani, V. Barone, 
 G. A. Petersson, H. Nakatsuji, X. Li, M. Caricato, A. V. Marenich, 
 J. Bloino, B. G. Janesko, R. Gomperts, B. Mennucci, H. P. Hratchian, 
 J. V. Ortiz, A. F. Izmaylov, J. L. Sonnenberg, D. Williams-Young, 
 F. Ding, F. Lipparini, F. Egidi, J. Goings, B. Peng, A. Petrone, 
 T. Henderson, D. Ranasinghe, V. G. Zakrzewski, J. Gao, N. Rega, 
 G. Zheng, W. Liang, M. Hada, M. Ehara, K. Toyota, R. Fukuda, 
 J. Hasegawa, M. Ishida, T. Nakajima, Y. Honda, O. Kitao, H. Nakai, 
 T. Vreven, K. Throssell, J. A. Montgomery, Jr., J. E. Peralta, 
 F. Ogliaro, M. J. Bearpark, J. J. Heyd, E. N. Brothers, K. N. Kudin, 
 V. N. Staroverov, T. A. Keith, R. Kobayashi, J. Normand, 
 K. Raghavachari, A. P. Rendell, J. C. Burant, S. S. Iyengar, 
 J. Tomasi, M. Cossi, J. M. Millam, M. Klene, C. Adamo, R. Cammi, 
 J. W. Ochterski, R. L. Martin, K. Morokuma, O. Farkas, 
 J. B. Foresman, and D. J. Fox, Gaussian, Inc., Wallingford CT, 2016.
 
 ******************************************
 Gaussian 16:  ES64L-G16RevA.03 25-Dec-2016
                20-Jan-2026 
 ******************************************
 %chk=conf_000.chk
 %mem=32GB
 %nprocshared=16
 Will use up to   16 processors via shared memory.
 --------------------------------------------------------------------
 #p B3LYP/def2SVP em=GD3BJ SCRF=(PCM,Solvent=Acetone) Opt=CalcFC Freq
 --------------------------------------------------------------------
 1/10=4,18=20,19=15,26=3,38=1/1,3;
 2/9=110,12=2,17=6,18=5,40=1/2;
 3/5=43,7=101,11=2,25=1,30=1,70=2201,71=2,72=19,74=-5,124=41,140=1/1,2,3;
 4//1;
 5/5=2,38=5,53=19/2;
 8/6=4,10=90,11=11/1;
 11/6=1,8=1,9=11,15=111,16=1/1,2,10;
 10/6=1,13=1/2;
 6/7=2,8=2,9=2,10=2,28=1/1;
 7/10=1,18=20,25=1/1,2,3,16;
 1/10=4,18=20,19=15,26=3/3(2);
 2/9=110/2;
 99//99;
 2/9=110/2;
 3/5=43,7=101,11=2,25=1,30=1,70=2205,71=1,72=19,74=-5,124=41/1,2,3;
 4/5=5,16=3,69=1/1;
 5/5=2,38=5,53=19/2;
 7//1,2,3,16;
 1/18=20,19=15,26=3/3(-5);
 2/9=110/2;
 6/7=2,8=2,9=2,10=2,19=2,28=1/1;
 99/9=1/99;
 Leave Link    1 at Tue Jan 20 11:08:54 2026, MaxMem=  4294967296 cpu:               0.4 elap:               0.0
 (Enter /root/g16/l101.exe)
 ----------------
 product_conf_000
 ----------------
 Symbolic Z-matrix:
 Charge =  0 Multiplicity = 1
 O                     2.77215   0.54227   1.51436 
 C                     1.92394   0.51771   0.64344 
 C                     0.72921   1.35821   0.64172 
 C                    -0.2195    1.19097  -0.29108 
 C                    -1.53763   1.89004  -0.28334 
 C                    -2.58886   1.02873   0.43665 
 C                    -2.64045  -0.40566  -0.11113 
 C                    -1.39391  -1.14939   0.31688 
 O                    -1.27532  -1.61892   1.42242 
 C                    -0.29832  -1.2443   -0.73209 
 C                     1.06409  -1.67543  -0.17394 
 C                     1.97622  -0.47074  -0.51932 
 O                     1.39203   0.0913   -1.67629 
 C                     0.02301   0.15146  -1.35666 
 H                     0.63753   2.08728   1.4336 
 H                    -1.45172   2.84566   0.2348 
 H                    -1.8637    2.07373  -1.30876 
 H                    -3.56724   1.4949    0.31645 
 H                    -2.35776   0.98688   1.50261 
 H                    -2.74245  -0.39386  -1.19545 
 H                    -3.50128  -0.91137   0.33006 
 H                    -0.6409   -1.92775  -1.5134 
 H                     1.01469  -1.85235   0.90052 
 H                     1.43191  -2.57415  -0.66461 
 H                     3.00645  -0.7511   -0.74137 
 H                    -0.52371   0.36357  -2.27592 
 
 ITRead=  0  0  0  0  0  0  0  0  0  0  0  0  0  0  0  0  0  0  0  0
 ITRead=  0  0  0  0  0  0
 MicOpt= -1 -1 -1 -1 -1 -1 -1 -1 -1 -1 -1 -1 -1 -1 -1 -1 -1 -1 -1 -1
 MicOpt= -1 -1 -1 -1 -1 -1
 NAtoms=     26 NQM=       26 NQMF=       0 NMMI=      0 NMMIF=      0
                NMic=       0 NMicF=      0.
                    Isotopes and Nuclear Properties:
 (Nuclear quadrupole moments (NQMom) in fm**2, nuclear magnetic moments (NMagM)
  in nuclear magnetons)

  Atom         1           2           3           4           5           6           7           8           9          10
 IAtWgt=          16          12          12          12          12          12          12          12          16          12
 AtmWgt=  15.9949146  12.0000000  12.0000000  12.0000000  12.0000000  12.0000000  12.0000000  12.0000000  15.9949146  12.0000000
 NucSpn=           0           0           0           0           0           0           0           0           0           0
 AtZEff=  -0.0000000  -0.0000000  -0.0000000  -0.0000000  -0.0000000  -0.0000000  -0.0000000  -0.0000000  -0.0000000  -0.0000000
 NQMom=    0.0000000   0.0000000   0.0000000   0.0000000   0.0000000   0.0000000   0.0000000   0.0000000   0.0000000   0.0000000
 NMagM=    0.0000000   0.0000000   0.0000000   0.0000000   0.0000000   0.0000000   0.0000000   0.0000000   0.0000000   0.0000000
 AtZNuc=   8.0000000   6.0000000   6.0000000   6.0000000   6.0000000   6.0000000   6.0000000   6.0000000   8.0000000   6.0000000

  Atom        11          12          13          14          15          16          17          18          19          20
 IAtWgt=          12          12          16          12           1           1           1           1           1           1
 AtmWgt=  12.0000000  12.0000000  15.9949146  12.0000000   1.0078250   1.0078250   1.0078250   1.0078250   1.0078250   1.0078250
 NucSpn=           0           0           0           0           1           1           1           1           1           1
 AtZEff=  -0.0000000  -0.0000000  -0.0000000  -0.0000000  -0.0000000  -0.0000000  -0.0000000  -0.0000000  -0.0000000  -0.0000000
 NQMom=    0.0000000   0.0000000   0.0000000   0.0000000   0.0000000   0.0000000   0.0000000   0.0000000   0.0000000   0.0000000
 NMagM=    0.0000000   0.0000000   0.0000000   0.0000000   2.7928460   2.7928460   2.7928460   2.7928460   2.7928460   2.7928460
 AtZNuc=   6.0000000   6.0000000   8.0000000   6.0000000   1.0000000   1.0000000   1.0000000   1.0000000   1.0000000   1.0000000

  Atom        21          22          23          24          25          26
 IAtWgt=           1           1           1           1           1           1
 AtmWgt=   1.0078250   1.0078250   1.0078250   1.0078250   1.0078250   1.0078250
 NucSpn=           1           1           1           1           1           1
 AtZEff=  -0.0000000  -0.0000000  -0.0000000  -0.0000000  -0.0000000  -0.0000000
 NQMom=    0.0000000   0.0000000   0.0000000   0.0000000   0.0000000   0.0000000
 NMagM=    2.7928460   2.7928460   2.7928460   2.7928460   2.7928460   2.7928460
 AtZNuc=   1.0000000   1.0000000   1.0000000   1.0000000   1.0000000   1.0000000
 Leave Link  101 at Tue Jan 20 11:08:55 2026, MaxMem=  4294967296 cpu:               7.1 elap:               0.5
 (Enter /root/g16/l103.exe)

 GradGradGradGradGradGradGradGradGradGradGradGradGradGradGradGradGradGrad
 Berny optimization.
 Initialization pass.
                           ----------------------------
                           !    Initial Parameters    !
                           ! (Angstroms and Degrees)  !
 --------------------------                            --------------------------
 ! Name  Definition              Value          Derivative Info.                !
 --------------------------------------------------------------------------------
 ! R1    R(1,2)                  1.216          calculate D2E/DX2 analytically  !
 ! R2    R(2,3)                  1.4608         calculate D2E/DX2 analytically  !
 ! R3    R(2,12)                 1.527          calculate D2E/DX2 analytically  !
 ! R4    R(3,4)                  1.3409         calculate D2E/DX2 analytically  !
 ! R5    R(3,15)                 1.0803         calculate D2E/DX2 analytically  !
 ! R6    R(4,5)                  1.4921         calculate D2E/DX2 analytically  !
 ! R7    R(4,14)                 1.5083         calculate D2E/DX2 analytically  !
 ! R8    R(5,6)                  1.538          calculate D2E/DX2 analytically  !
 ! R9    R(5,16)                 1.0904         calculate D2E/DX2 analytically  !
 ! R10   R(5,17)                 1.0916         calculate D2E/DX2 analytically  !
 ! R11   R(6,7)                  1.5363         calculate D2E/DX2 analytically  !
 ! R12   R(6,18)                 1.0904         calculate D2E/DX2 analytically  !
 ! R13   R(6,19)                 1.0915         calculate D2E/DX2 analytically  !
 ! R14   R(7,8)                  1.5133         calculate D2E/DX2 analytically  !
 ! R15   R(7,20)                 1.0892         calculate D2E/DX2 analytically  !
 ! R16   R(7,21)                 1.0915         calculate D2E/DX2 analytically  !
 ! R17   R(8,9)                  1.207          calculate D2E/DX2 analytically  !
 ! R18   R(8,10)                 1.5198         calculate D2E/DX2 analytically  !
 ! R19   R(10,11)                1.5341         calculate D2E/DX2 analytically  !
 ! R20   R(10,14)                1.5625         calculate D2E/DX2 analytically  !
 ! R21   R(10,22)                1.0931         calculate D2E/DX2 analytically  !
 ! R22   R(11,12)                1.55           calculate D2E/DX2 analytically  !
 ! R23   R(11,23)                1.09           calculate D2E/DX2 analytically  !
 ! R24   R(11,24)                1.088          calculate D2E/DX2 analytically  !
 ! R25   R(12,13)                1.4127         calculate D2E/DX2 analytically  !
 ! R26   R(12,25)                1.0905         calculate D2E/DX2 analytically  !
 ! R27   R(13,14)                1.4071         calculate D2E/DX2 analytically  !
 ! R28   R(14,26)                1.0904         calculate D2E/DX2 analytically  !
 ! A1    A(1,2,3)              124.0383         calculate D2E/DX2 analytically  !
 ! A2    A(1,2,12)             122.3154         calculate D2E/DX2 analytically  !
 ! A3    A(3,2,12)             113.5503         calculate D2E/DX2 analytically  !
 ! A4    A(2,3,4)              120.5113         calculate D2E/DX2 analytically  !
 ! A5    A(2,3,15)             117.185          calculate D2E/DX2 analytically  !
 ! A6    A(4,3,15)             122.2788         calculate D2E/DX2 analytically  !
 ! A7    A(3,4,5)              124.2624         calculate D2E/DX2 analytically  !
 ! A8    A(3,4,14)             117.6235         calculate D2E/DX2 analytically  !
 ! A9    A(5,4,14)             117.9448         calculate D2E/DX2 analytically  !
 ! A10   A(4,5,6)              110.1134         calculate D2E/DX2 analytically  !
 ! A11   A(4,5,16)             110.0878         calculate D2E/DX2 analytically  !
 ! A12   A(4,5,17)             109.7466         calculate D2E/DX2 analytically  !
 ! A13   A(6,5,16)             108.7958         calculate D2E/DX2 analytically  !
 ! A14   A(6,5,17)             109.259          calculate D2E/DX2 analytically  !
 ! A15   A(16,5,17)            108.8104         calculate D2E/DX2 analytically  !
 ! A16   A(5,6,7)              112.267          calculate D2E/DX2 analytically  !
 ! A17   A(5,6,18)             108.8            calculate D2E/DX2 analytically  !
 ! A18   A(5,6,19)             109.508          calculate D2E/DX2 analytically  !
 ! A19   A(7,6,18)             109.252          calculate D2E/DX2 analytically  !
 ! A20   A(7,6,19)             108.6338         calculate D2E/DX2 analytically  !
 ! A21   A(18,6,19)            108.3009         calculate D2E/DX2 analytically  !
 ! A22   A(6,7,8)              109.2895         calculate D2E/DX2 analytically  !
 ! A23   A(6,7,20)             110.3654         calculate D2E/DX2 analytically  !
 ! A24   A(6,7,21)             108.3575         calculate D2E/DX2 analytically  !
 ! A25   A(8,7,20)             111.3476         calculate D2E/DX2 analytically  !
 ! A26   A(8,7,21)             107.9146         calculate D2E/DX2 analytically  !
 ! A27   A(20,7,21)            109.4852         calculate D2E/DX2 analytically  !
 ! A28   A(7,8,9)              122.0851         calculate D2E/DX2 analytically  !
 ! A29   A(7,8,10)             115.4222         calculate D2E/DX2 analytically  !
 ! A30   A(9,8,10)             122.4863         calculate D2E/DX2 analytically  !
 ! A31   A(8,10,11)            113.9935         calculate D2E/DX2 analytically  !
 ! A32   A(8,10,14)            111.6142         calculate D2E/DX2 analytically  !
 ! A33   A(8,10,22)            107.8456         calculate D2E/DX2 analytically  !
 ! A34   A(11,10,14)           102.3471         calculate D2E/DX2 analytically  !
 ! A35   A(11,10,22)           111.2636         calculate D2E/DX2 analytically  !
 ! A36   A(14,10,22)           109.7096         calculate D2E/DX2 analytically  !
 ! A37   A(10,11,12)           102.8917         calculate D2E/DX2 analytically  !
 ! A38   A(10,11,23)           111.3455         calculate D2E/DX2 analytically  !
 ! A39   A(10,11,24)           111.6097         calculate D2E/DX2 analytically  !
 ! A40   A(12,11,23)           111.867          calculate D2E/DX2 analytically  !
 ! A41   A(12,11,24)           110.0331         calculate D2E/DX2 analytically  !
 ! A42   A(23,11,24)           109.0133         calculate D2E/DX2 analytically  !
 ! A43   A(2,12,11)            108.2569         calculate D2E/DX2 analytically  !
 ! A44   A(2,12,13)            110.6051         calculate D2E/DX2 analytically  !
 ! A45   A(2,12,25)            110.7198         calculate D2E/DX2 analytically  !
 ! A46   A(11,12,13)           104.3803         calculate D2E/DX2 analytically  !
 ! A47   A(11,12,25)           113.6711         calculate D2E/DX2 analytically  !
 ! A48   A(13,12,25)           109.0368         calculate D2E/DX2 analytically  !
 ! A49   A(12,13,14)           103.4916         calculate D2E/DX2 analytically  !
 ! A50   A(4,14,10)            107.4692         calculate D2E/DX2 analytically  !
 ! A51   A(4,14,13)            110.2657         calculate D2E/DX2 analytically  !
 ! A52   A(4,14,26)            112.3913         calculate D2E/DX2 analytically  !
 ! A53   A(10,14,13)           104.6365         calculate D2E/DX2 analytically  !
 ! A54   A(10,14,26)           114.0568         calculate D2E/DX2 analytically  !
 ! A55   A(13,14,26)           107.7364         calculate D2E/DX2 analytically  !
 ! D1    D(1,2,3,4)           -174.0627         calculate D2E/DX2 analytically  !
 ! D2    D(1,2,3,15)             4.1607         calculate D2E/DX2 analytically  !
 ! D3    D(12,2,3,4)             2.4396         calculate D2E/DX2 analytically  !
 ! D4    D(12,2,3,15)         -179.337          calculate D2E/DX2 analytically  !
 ! D5    D(1,2,12,11)           97.0946         calculate D2E/DX2 analytically  !
 ! D6    D(1,2,12,13)         -149.1131         calculate D2E/DX2 analytically  !
 ! D7    D(1,2,12,25)          -28.1302         calculate D2E/DX2 analytically  !
 ! D8    D(3,2,12,11)          -79.4759         calculate D2E/DX2 analytically  !
 ! D9    D(3,2,12,13)           34.3164         calculate D2E/DX2 analytically  !
 ! D10   D(3,2,12,25)          155.2993         calculate D2E/DX2 analytically  !
 ! D11   D(2,3,4,5)            172.7227         calculate D2E/DX2 analytically  !
 ! D12   D(2,3,4,14)            -2.4403         calculate D2E/DX2 analytically  !
 ! D13   D(15,3,4,5)            -5.4081         calculate D2E/DX2 analytically  !
 ! D14   D(15,3,4,14)          179.4289         calculate D2E/DX2 analytically  !
 ! D15   D(3,4,5,6)            -92.5244         calculate D2E/DX2 analytically  !
 ! D16   D(3,4,5,16)            27.4275         calculate D2E/DX2 analytically  !
 ! D17   D(3,4,5,17)           147.1665         calculate D2E/DX2 analytically  !
 ! D18   D(14,4,5,6)            82.6243         calculate D2E/DX2 analytically  !
 ! D19   D(14,4,5,16)         -157.4239         calculate D2E/DX2 analytically  !
 ! D20   D(14,4,5,17)          -37.6849         calculate D2E/DX2 analytically  !
 ! D21   D(3,4,14,10)           79.0637         calculate D2E/DX2 analytically  !
 ! D22   D(3,4,14,13)          -34.4259         calculate D2E/DX2 analytically  !
 ! D23   D(3,4,14,26)         -154.6473         calculate D2E/DX2 analytically  !
 ! D24   D(5,4,14,10)          -96.4117         calculate D2E/DX2 analytically  !
 ! D25   D(5,4,14,13)          150.0987         calculate D2E/DX2 analytically  !
 ! D26   D(5,4,14,26)           29.8773         calculate D2E/DX2 analytically  !
 ! D27   D(4,5,6,7)            -51.5865         calculate D2E/DX2 analytically  !
 ! D28   D(4,5,6,18)          -172.635          calculate D2E/DX2 analytically  !
 ! D29   D(4,5,6,19)            69.1676         calculate D2E/DX2 analytically  !
 ! D30   D(16,5,6,7)          -172.3175         calculate D2E/DX2 analytically  !
 ! D31   D(16,5,6,18)           66.634          calculate D2E/DX2 analytically  !
 ! D32   D(16,5,6,19)          -51.5634         calculate D2E/DX2 analytically  !
 ! D33   D(17,5,6,7)            69.0164         calculate D2E/DX2 analytically  !
 ! D34   D(17,5,6,18)          -52.0321         calculate D2E/DX2 analytically  !
 ! D35   D(17,5,6,19)         -170.2296         calculate D2E/DX2 analytically  !
 ! D36   D(5,6,7,8)             71.2646         calculate D2E/DX2 analytically  !
 ! D37   D(5,6,7,20)           -51.5083         calculate D2E/DX2 analytically  !
 ! D38   D(5,6,7,21)          -171.3801         calculate D2E/DX2 analytically  !
 ! D39   D(18,6,7,8)          -167.9471         calculate D2E/DX2 analytically  !
 ! D40   D(18,6,7,20)           69.2799         calculate D2E/DX2 analytically  !
 ! D41   D(18,6,7,21)          -50.5918         calculate D2E/DX2 analytically  !
 ! D42   D(19,6,7,8)           -49.9923         calculate D2E/DX2 analytically  !
 ! D43   D(19,6,7,20)         -172.7653         calculate D2E/DX2 analytically  !
 ! D44   D(19,6,7,21)           67.3629         calculate D2E/DX2 analytically  !
 ! D45   D(6,7,8,9)             79.761          calculate D2E/DX2 analytically  !
 ! D46   D(6,7,8,10)           -99.343          calculate D2E/DX2 analytically  !
 ! D47   D(20,7,8,9)          -158.054          calculate D2E/DX2 analytically  !
 ! D48   D(20,7,8,10)           22.842          calculate D2E/DX2 analytically  !
 ! D49   D(21,7,8,9)           -37.873          calculate D2E/DX2 analytically  !
 ! D50   D(21,7,8,10)          143.023          calculate D2E/DX2 analytically  !
 ! D51   D(7,8,10,11)          165.2532         calculate D2E/DX2 analytically  !
 ! D52   D(7,8,10,14)           49.9054         calculate D2E/DX2 analytically  !
 ! D53   D(7,8,10,22)          -70.6689         calculate D2E/DX2 analytically  !
 ! D54   D(9,8,10,11)          -13.8468         calculate D2E/DX2 analytically  !
 ! D55   D(9,8,10,14)         -129.1946         calculate D2E/DX2 analytically  !
 ! D56   D(9,8,10,22)          110.2311         calculate D2E/DX2 analytically  !
 ! D57   D(8,10,11,12)        -119.5166         calculate D2E/DX2 analytically  !
 ! D58   D(8,10,11,23)           0.4614         calculate D2E/DX2 analytically  !
 ! D59   D(8,10,11,24)         122.5365         calculate D2E/DX2 analytically  !
 ! D60   D(14,10,11,12)          1.1585         calculate D2E/DX2 analytically  !
 ! D61   D(14,10,11,23)        121.1366         calculate D2E/DX2 analytically  !
 ! D62   D(14,10,11,24)       -116.7884         calculate D2E/DX2 analytically  !
 ! D63   D(22,10,11,12)        118.2647         calculate D2E/DX2 analytically  !
 ! D64   D(22,10,11,23)       -121.7572         calculate D2E/DX2 analytically  !
 ! D65   D(22,10,11,24)          0.3179         calculate D2E/DX2 analytically  !
 ! D66   D(8,10,14,4)           31.3711         calculate D2E/DX2 analytically  !
 ! D67   D(8,10,14,13)         148.5964         calculate D2E/DX2 analytically  !
 ! D68   D(8,10,14,26)         -93.9267         calculate D2E/DX2 analytically  !
 ! D69   D(11,10,14,4)         -90.9372         calculate D2E/DX2 analytically  !
 ! D70   D(11,10,14,13)         26.2881         calculate D2E/DX2 analytically  !
 ! D71   D(11,10,14,26)        143.7651         calculate D2E/DX2 analytically  !
 ! D72   D(22,10,14,4)         150.8488         calculate D2E/DX2 analytically  !
 ! D73   D(22,10,14,13)        -91.9259         calculate D2E/DX2 analytically  !
 ! D74   D(22,10,14,26)         25.551          calculate D2E/DX2 analytically  !
 ! D75   D(10,11,12,2)          89.6799         calculate D2E/DX2 analytically  !
 ! D76   D(10,11,12,13)        -28.1691         calculate D2E/DX2 analytically  !
 ! D77   D(10,11,12,25)       -146.8578         calculate D2E/DX2 analytically  !
 ! D78   D(23,11,12,2)         -29.9375         calculate D2E/DX2 analytically  !
 ! D79   D(23,11,12,13)       -147.7865         calculate D2E/DX2 analytically  !
 ! D80   D(23,11,12,25)         93.5248         calculate D2E/DX2 analytically  !
 ! D81   D(24,11,12,2)        -151.2689         calculate D2E/DX2 analytically  !
 ! D82   D(24,11,12,13)         90.882          calculate D2E/DX2 analytically  !
 ! D83   D(24,11,12,25)        -27.8067         calculate D2E/DX2 analytically  !
 ! D84   D(2,12,13,14)         -69.6818         calculate D2E/DX2 analytically  !
 ! D85   D(11,12,13,14)         46.544          calculate D2E/DX2 analytically  !
 ! D86   D(25,12,13,14)        168.3414         calculate D2E/DX2 analytically  !
 ! D87   D(12,13,14,4)          69.5498         calculate D2E/DX2 analytically  !
 ! D88   D(12,13,14,10)        -45.7379         calculate D2E/DX2 analytically  !
 ! D89   D(12,13,14,26)       -167.4647         calculate D2E/DX2 analytically  !
 --------------------------------------------------------------------------------
 Trust Radius=3.00D-01 FncErr=1.00D-07 GrdErr=1.00D-06 EigMax=2.50D+02 EigMin=1.00D-04
 Number of steps in this run=    156 maximum allowed number of steps=    156.
 GradGradGradGradGradGradGradGradGradGradGradGradGradGradGradGradGradGrad

 Leave Link  103 at Tue Jan 20 11:08:55 2026, MaxMem=  4294967296 cpu:               0.5 elap:               0.0
 (Enter /root/g16/l202.exe)
                          Input orientation:                          
 ---------------------------------------------------------------------
 Center     Atomic      Atomic             Coordinates (Angstroms)
 Number     Number       Type             X           Y           Z
 ---------------------------------------------------------------------
      1          8           0        2.772153    0.542275    1.514360
      2          6           0        1.923941    0.517712    0.643441
      3          6           0        0.729214    1.358211    0.641715
      4          6           0       -0.219495    1.190971   -0.291078
      5          6           0       -1.537632    1.890044   -0.283342
      6          6           0       -2.588856    1.028732    0.436647
      7          6           0       -2.640453   -0.405657   -0.111133
      8          6           0       -1.393910   -1.149386    0.316879
      9          8           0       -1.275321   -1.618920    1.422419
     10          6           0       -0.298317   -1.244301   -0.732095
     11          6           0        1.064088   -1.675432   -0.173938
     12          6           0        1.976219   -0.470744   -0.519320
     13          8           0        1.392033    0.091301   -1.676289
     14          6           0        0.023009    0.151456   -1.356659
     15          1           0        0.637528    2.087276    1.433603
     16          1           0       -1.451719    2.845659    0.234803
     17          1           0       -1.863697    2.073729   -1.308762
     18          1           0       -3.567241    1.494905    0.316452
     19          1           0       -2.357756    0.986880    1.502613
     20          1           0       -2.742450   -0.393862   -1.195453
     21          1           0       -3.501280   -0.911371    0.330061
     22          1           0       -0.640901   -1.927746   -1.513397
     23          1           0        1.014691   -1.852354    0.900518
     24          1           0        1.431909   -2.574152   -0.664613
     25          1           0        3.006449   -0.751101   -0.741374
     26          1           0       -0.523712    0.363567   -2.275921
 ---------------------------------------------------------------------
                    Distance matrix (angstroms):
                    1          2          3          4          5
     1  O    0.000000
     2  C    1.215963   0.000000
     3  C    2.366613   1.460758   0.000000
     4  C    3.553923   2.433294   1.340941   0.000000
     5  C    4.860293   3.837279   2.505427   1.492061   0.000000
     6  C    5.489856   4.546344   3.340689   2.483903   1.537958
     7  C    5.730367   4.717593   3.877198   2.905621   2.552667
     8  C    4.653144   3.727464   3.301699   2.688146   3.101460
     9  O    4.589255   3.925211   3.673005   3.456345   3.910403
    10  C    4.203117   3.152018   3.117088   2.476137   3.400205
    11  C    3.268954   2.493459   3.159180   3.142861   4.415148
    12  C    2.407400   1.527020   2.499620   2.763069   4.239829
    13  O    3.505475   2.417830   2.723515   2.392720   3.709274
    14  C    3.994156   2.783539   2.438951   1.508265   2.571050
    15  H    2.636318   2.177785   1.080291   2.124235   2.778150
    16  H    4.978346   4.120850   2.671057   2.129065   1.090438
    17  H    5.639722   4.536352   3.322577   2.125639   1.091579
    18  H    6.521533   5.587030   4.310917   3.415972   2.152951
    19  H    5.149153   4.392178   3.226208   2.798418   2.162856
    20  H    6.215326   5.097813   4.300860   3.113662   2.738569
    21  H    6.547641   5.619031   4.810947   3.946614   3.475644
    22  H    5.188183   4.148569   4.161638   3.376098   4.110070
    23  H    3.033104   2.551477   3.233605   3.493557   4.682031
    24  H    4.031909   3.393040   4.202826   4.128294   5.375181
    25  H    2.610756   2.167814   3.398224   3.792245   5.275804
    26  H    5.026022   3.812800   3.327423   2.171808   2.707127
                    6          7          8          9         10
     6  C    0.000000
     7  C    1.536293   0.000000
     8  C    2.487255   1.513340   0.000000
     9  O    3.115635   2.384822   1.206956   0.000000
    10  C    3.432084   2.564082   1.519762   2.395162   0.000000
    11  C    4.585774   3.916619   2.561129   2.832734   1.534132
    12  C    4.899205   4.635139   3.538016   3.957420   2.411883
    13  O    4.603342   4.354036   3.643282   4.431887   2.352152
    14  C    3.287461   2.992614   2.549623   3.541633   1.562520
    15  H    3.538925   4.398418   3.981180   4.170732   4.082335
    16  H    2.152916   3.479054   3.996306   4.623204   4.358095
    17  H    2.159705   2.860947   3.640313   4.630463   3.713796
    18  H    1.090413   2.157289   3.422812   4.021438   4.391874
    19  H    1.091533   2.150175   2.626518   2.822816   3.770063
    20  H    2.170510   1.089171   2.162527   3.241371   2.629017
    21  H    2.146597   1.091523   2.120810   2.578520   3.390868
    22  H    4.042024   2.877726   2.126682   3.019416   1.093112
    23  H    4.636958   4.059119   2.576073   2.360301   2.181546
    24  H    5.509999   4.646810   3.313387   3.549262   2.183286
    25  H    5.988570   5.692454   4.543312   4.875311   3.341379
    26  H    3.473512   3.123877   3.125521   4.262967   2.240411
                   11         12         13         14         15
    11  C    0.000000
    12  C    1.550015   0.000000
    13  O    2.342211   1.412708   0.000000
    14  C    2.412508   2.214339   1.407128   0.000000
    15  H    4.113893   3.485609   3.771555   3.451173   0.000000
    16  H    5.190050   4.828870   4.396099   3.459235   2.525315
    17  H    4.890395   4.673597   3.829474   2.693898   3.711721
    18  H    5.633891   5.940727   5.525895   4.182589   4.390787
    19  H    4.648414   4.999623   4.996840   3.813321   3.191765
    20  H    4.144351   4.767484   4.190529   2.823318   4.948963
    21  H    4.656221   5.560449   5.382871   4.049103   5.228711
    22  H    2.182842   3.156004   2.869826   2.188246   5.141944
    23  H    1.090045   2.202118   3.249634   3.177033   3.993384
    24  H    1.088003   2.177546   2.851266   3.145292   5.173245
    25  H    2.224665   1.090541   2.046960   3.177121   4.289370
    26  H    3.331210   3.167235   2.025776   1.090384   4.252084
                   16         17         18         19         20
    16  H    0.000000
    17  H    1.774316   0.000000
    18  H    2.511302   2.424545   0.000000
    19  H    2.425553   3.054369   1.768593   0.000000
    20  H    3.769100   2.621841   2.556086   3.055159   0.000000
    21  H    4.280777   3.778656   2.407218   2.507166   1.780683
    22  H    5.147720   4.189141   4.860694   4.531992   2.621144
    23  H    5.347679   5.346041   5.704329   4.449400   4.542730
    24  H    6.204724   5.733998   6.520062   5.633771   4.739275
    25  H    5.810754   5.658614   7.026872   6.068834   5.777858
    26  H    3.650440   2.378152   4.154923   4.246123   2.581455
                   21         22         23         24         25
    21  H    0.000000
    22  H    3.551496   0.000000
    23  H    4.648103   2.928080   0.000000
    24  H    5.300053   2.331269   1.773330   0.000000
    25  H    6.597287   3.909434   2.806362   2.410100   0.000000
    26  H    4.157225   2.417704   4.167344   3.879557   4.007413
                   26
    26  H    0.000000
 Stoichiometry    C11H12O3
 Framework group  C1[X(C11H12O3)]
 Deg. of freedom    72
 Full point group                 C1      NOp   1
 Largest Abelian subgroup         C1      NOp   1
 Largest concise Abelian subgroup C1      NOp   1
                         Standard orientation:                         
 ---------------------------------------------------------------------
 Center     Atomic      Atomic             Coordinates (Angstroms)
 Number     Number       Type             X           Y           Z
 ---------------------------------------------------------------------
      1          8           0        2.793037   -0.767799   -1.484718
      2          6           0        1.947245   -0.647555   -0.619418
      3          6           0        0.712311   -1.426169   -0.569303
      4          6           0       -0.226769   -1.154901    0.348665
      5          6           0       -1.577950   -1.787007    0.380259
      6          6           0       -2.585303   -0.920808   -0.394501
      7          6           0       -2.565610    0.545455    0.063626
      8          6           0       -1.283799    1.198720   -0.405846
      9          8           0       -1.142274    1.592658   -1.537891
     10          6           0       -0.184657    1.303862    0.638429
     11          6           0        1.197349    1.631739    0.058673
     12          6           0        2.048684    0.406998    0.480317
     13          8           0        1.437557   -0.052936    1.668058
     14          6           0        0.067176   -0.064865    1.348805
     15          1           0        0.584441   -2.197299   -1.314982
     16          1           0       -1.539623   -2.775868   -0.077717
     17          1           0       -1.912536   -1.890668    1.414112
     18          1           0       -3.585578   -1.329665   -0.248604
     19          1           0       -2.352606   -0.956337   -1.460350
     20          1           0       -2.667869    0.605690    1.146311
     21          1           0       -3.400382    1.064959   -0.410394
     22          1           0       -0.492788    2.050359    1.375106
     23          1           0        1.156590    1.744217   -1.024787
     24          1           0        1.609371    2.539725    0.494046
     25          1           0        3.091589    0.649185    0.687624
     26          1           0       -0.489223   -0.192494    2.277819
 ---------------------------------------------------------------------
 Rotational constants (GHZ):           1.1693654           0.6786613           0.6168189
 Leave Link  202 at Tue Jan 20 11:08:55 2026, MaxMem=  4294967296 cpu:               0.3 elap:               0.0
 (Enter /root/g16/l301.exe)
 Standard basis: def2SVP (5D, 7F)
 Ernie: Thresh=  0.10000D-02 Tol=  0.10000D-05 Strict=F.
 There are   270 symmetry adapted cartesian basis functions of A   symmetry.
 There are   256 symmetry adapted basis functions of A   symmetry.
   256 basis functions,   434 primitive gaussians,   270 cartesian basis functions
    51 alpha electrons       51 beta electrons
       nuclear repulsion energy       952.8159744131 Hartrees.
 IExCor=  402 DFT=T Ex+Corr=B3LYP ExCW=0 ScaHFX=  0.200000
 ScaDFX=  0.800000  0.720000  1.000000  0.810000 ScalE2=  1.000000  1.000000
 IRadAn=      5 IRanWt=     -1 IRanGd=            0 ICorTp=0 IEmpDi=141
 NAtoms=   26 NActive=   26 NUniq=   26 SFac= 1.00D+00 NAtFMM=   60 NAOKFM=F Big=F
 Integral buffers will be    131072 words long.
 Raffenetti 2 integral format.
 Two-electron integral symmetry is turned on.
 R6Disp:  Grimme-D3(BJ) Dispersion energy=       -0.0579403349 Hartrees.
 Nuclear repulsion after empirical dispersion term =      952.7580340782 Hartrees.
 Force inversion solution in PCM.
 ------------------------------------------------------------------------------
 Polarizable Continuum Model (PCM)
 =================================
 Model                : PCM.
 Atomic radii         : UFF (Universal Force Field).
 Polarization charges : Total charges.
 Charge compensation  : None.
 Solution method      : Matrix inversion.
 Cavity type          : Scaled VdW (van der Waals Surface) (Alpha=1.100).
 Cavity algorithm     : GePol (No added spheres)
                        Default sphere list used, NSphG=   26.
                        Lebedev-Laikov grids with approx.  5.0 points / Ang**2.
                        Smoothing algorithm: York/Karplus (Gamma=1.0000).
                        Polarization charges: spherical gaussians, with
                                              point-specific exponents (IZeta= 3).
                        Self-potential: point-specific (ISelfS= 7).
                        Self-field    : sphere-specific E.n sum rule (ISelfD= 2).
 1st derivatives      : Analytical E(r).r(x)/FMM algorithm (CHGder, D1EAlg=3).
                        Cavity 1st derivative terms included.
 2nd derivatives      : Analytical E(r).r(xy)/FMM algorithm (CHGder, D2EAlg=3).
                        Cavity 2nd derivative terms included.
 Solvent              : Acetone, Eps=  20.493000 Eps(inf)=   1.846337
 ------------------------------------------------------------------------------
 GePol: Number of generator spheres                  =      26
 GePol: Total number of spheres                      =      26
 GePol: Number of exposed spheres                    =      26 (100.00%)
 GePol: Number of points                             =    1791
 GePol: Average weight of points                     =       0.13
 GePol: Minimum weight of points                     =   0.35D-10
 GePol: Maximum weight of points                     =    0.20577
 GePol: Number of points with low weight             =     126
 GePol: Fraction of low-weight points (<1% of avg)   =       7.04%
 GePol: Cavity surface area                          =    235.760 Ang**2
 GePol: Cavity volume                                =    256.862 Ang**3
 Leave Link  301 at Tue Jan 20 11:08:55 2026, MaxMem=  4294967296 cpu:               0.6 elap:               0.0
 (Enter /root/g16/l302.exe)
 NPDir=0 NMtPBC=     1 NCelOv=     1 NCel=       1 NClECP=     1 NCelD=      1
         NCelK=      1 NCelE2=     1 NClLst=     1 CellRange=     0.0.
 One-electron integrals computed using PRISM.
 One-electron integral symmetry used in STVInt
   1 Symmetry operations used in ECPInt.
 ECPInt:  NShTT=    7260 NPrTT=   26324 LenC2=    7150 LenP2D=   19950.
 LDataN:  DoStor=T MaxTD1= 4 Len=   56
 NBasis=   256 RedAO= T EigKep=  3.31D-04  NBF=   256
 NBsUse=   256 1.00D-06 EigRej= -1.00D+00 NBFU=   256
 Precomputing XC quadrature grid using
 IXCGrd= 4 IRadAn=           5 IRanWt=          -1 IRanGd=           0 AccXCQ= 0.00D+00.
 Generated NRdTot=       0 NPtTot=           0 NUsed=           0 NTot=          32
 NSgBfM=   270   270   270   270   270 MxSgAt=    26 MxSgA2=    26.
 Leave Link  302 at Tue Jan 20 11:08:55 2026, MaxMem=  4294967296 cpu:               2.7 elap:               0.2
 (Enter /root/g16/l303.exe)
 DipDrv:  MaxL=1.
 Leave Link  303 at Tue Jan 20 11:08:56 2026, MaxMem=  4294967296 cpu:               0.3 elap:               0.0
 (Enter /root/g16/l401.exe)
 ExpMin= 1.22D-01 ExpMax= 2.27D+03 ExpMxC= 3.41D+02 IAcc=3 IRadAn=         5 AccDes= 0.00D+00
 Harris functional with IExCor=  402 and IRadAn=       5 diagonalized for initial guess.
 HarFok:  IExCor=  402 AccDes= 0.00D+00 IRadAn=         5 IDoV= 1 UseB2=F ITyADJ=14
 ICtDFT=  3500011 ScaDFX=  1.000000  1.000000  1.000000  1.000000
 FoFCou: FMM=F IPFlag=           0 FMFlag=      100000 FMFlg1=           0
         NFxFlg=           0 DoJE=T BraDBF=F KetDBF=T FulRan=T
         wScrn=  0.000000 ICntrl=       500 IOpCl=  0 I1Cent=   200000004 NGrid=           0
         NMat0=    1 NMatS0=      1 NMatT0=    0 NMatD0=    1 NMtDS0=    0 NMtDT0=    0
 Petite list used in FoFCou.
 Harris En= -651.606207338854    
 JPrj=0 DoOrth=F DoCkMO=F.
 Leave Link  401 at Tue Jan 20 11:08:56 2026, MaxMem=  4294967296 cpu:               8.9 elap:               0.6
 (Enter /root/g16/l502.exe)
 Integral symmetry usage will be decided dynamically.
 Closed shell SCF:
 Using DIIS extrapolation, IDIIS=  1040.
 NGot=  4294967296 LenX=  4294814202 LenY=  4294740861
 Requested convergence on RMS density matrix=1.00D-08 within 128 cycles.
 Requested convergence on MAX density matrix=1.00D-06.
 Requested convergence on             energy=1.00D-06.
 No special actions if energy rises.
 Fock matrices will be formed incrementally for  20 cycles.

 Cycle   1  Pass 1  IDiag  1:
 FoFJK:  IHMeth= 1 ICntrl=       0 DoSepK=F KAlg= 0 I1Cent=           0 FoldK=F
 IRaf= 960000000 NMat=       1 IRICut=       1 DoRegI=T DoRafI=F ISym2E= 0 IDoP0=0 IntGTp=1.
 FoFCou: FMM=F IPFlag=           0 FMFlag=      100000 FMFlg1=           0
         NFxFlg=           0 DoJE=F BraDBF=F KetDBF=F FulRan=T
         wScrn=  0.000000 ICntrl=         0 IOpCl=  0 I1Cent=           0 NGrid=           0
         NMat0=    1 NMatS0=      1 NMatT0=    0 NMatD0=    1 NMtDS0=    0 NMtDT0=    0
 Symmetry not used in FoFCou.
 Inv3:  Mode=1 IEnd=     9623043.
 Iteration    1 A*A^-1 deviation from unit magnitude is 3.55D-15 for    613.
 Iteration    1 A*A^-1 deviation from orthogonality  is 2.66D-15 for   1552    223.
 Iteration    1 A^-1*A deviation from unit magnitude is 3.55D-15 for    613.
 Iteration    1 A^-1*A deviation from orthogonality  is 2.39D-15 for   1695   1326.
 E= -651.341024155745    
 DIIS: error= 2.02D-02 at cycle   1 NSaved=   1.
 NSaved= 1 IEnMin= 1 EnMin= -651.341024155745     IErMin= 1 ErrMin= 2.02D-02
 ErrMax= 2.02D-02  0.00D+00 EMaxC= 1.00D-01 BMatC= 3.04D-01 BMatP= 3.04D-01
 IDIUse=3 WtCom= 7.98D-01 WtEn= 2.02D-01
 Coeff-Com:  0.100D+01
 Coeff-En:   0.100D+01
 Coeff:      0.100D+01
 Gap=     0.147 Goal=   None    Shift=    0.000
 GapD=    0.147 DampG=1.000 DampE=0.500 DampFc=0.5000 IDamp=-1.
 Damping current iteration by 5.00D-01
 RMSDP=7.10D-03 MaxDP=3.40D-01              OVMax= 1.75D-01

 Cycle   2  Pass 1  IDiag  1:
 RMSU=  3.54D-03    CP:  9.88D-01
 E= -651.448474991913     Delta-E=       -0.107450836169 Rises=F Damp=T
 DIIS: error= 6.83D-03 at cycle   2 NSaved=   2.
 NSaved= 2 IEnMin= 2 EnMin= -651.448474991913     IErMin= 2 ErrMin= 6.83D-03
 ErrMax= 6.83D-03  0.00D+00 EMaxC= 1.00D-01 BMatC= 3.29D-02 BMatP= 3.04D-01
 IDIUse=3 WtCom= 9.32D-01 WtEn= 6.83D-02
 Coeff-Com:  0.159D+00 0.841D+00
 Coeff-En:   0.221D+00 0.779D+00
 Coeff:      0.163D+00 0.837D+00
 Gap=     0.193 Goal=   None    Shift=    0.000
 RMSDP=2.14D-03 MaxDP=1.16D-01 DE=-1.07D-01 OVMax= 1.51D-01

 Cycle   3  Pass 1  IDiag  1:
 RMSU=  2.04D-03    CP:  9.63D-01  8.99D-01
 E= -651.595731521163     Delta-E=       -0.147256529249 Rises=F Damp=F
 DIIS: error= 8.50D-03 at cycle   3 NSaved=   3.
 NSaved= 3 IEnMin= 3 EnMin= -651.595731521163     IErMin= 2 ErrMin= 6.83D-03
 ErrMax= 8.50D-03  0.00D+00 EMaxC= 1.00D-01 BMatC= 3.50D-02 BMatP= 3.29D-02
 IDIUse=3 WtCom= 9.15D-01 WtEn= 8.50D-02
 Coeff-Com:  0.259D-01 0.507D+00 0.467D+00
 Coeff-En:   0.000D+00 0.000D+00 0.100D+01
 Coeff:      0.237D-01 0.464D+00 0.512D+00
 Gap=     0.175 Goal=   None    Shift=    0.000
 RMSDP=1.20D-03 MaxDP=4.76D-02 DE=-1.47D-01 OVMax= 5.93D-02

 Cycle   4  Pass 1  IDiag  1:
 RMSU=  8.91D-04    CP:  9.72D-01  1.02D+00  6.83D-01
 E= -651.620983564919     Delta-E=       -0.025252043757 Rises=F Damp=F
 DIIS: error= 3.36D-03 at cycle   4 NSaved=   4.
 NSaved= 4 IEnMin= 4 EnMin= -651.620983564919     IErMin= 4 ErrMin= 3.36D-03
 ErrMax= 3.36D-03  0.00D+00 EMaxC= 1.00D-01 BMatC= 6.17D-03 BMatP= 3.29D-02
 IDIUse=3 WtCom= 9.66D-01 WtEn= 3.36D-02
 Coeff-Com:  0.209D-02 0.131D+00 0.314D+00 0.553D+00
 Coeff-En:   0.000D+00 0.000D+00 0.176D+00 0.824D+00
 Coeff:      0.202D-02 0.126D+00 0.310D+00 0.562D+00
 Gap=     0.177 Goal=   None    Shift=    0.000
 RMSDP=5.26D-04 MaxDP=2.24D-02 DE=-2.53D-02 OVMax= 2.26D-02

 Cycle   5  Pass 1  IDiag  1:
 RMSU=  2.21D-04    CP:  9.69D-01  9.54D-01  7.51D-01  5.64D-01
 E= -651.626156277550     Delta-E=       -0.005172712631 Rises=F Damp=F
 DIIS: error= 4.31D-04 at cycle   5 NSaved=   5.
 NSaved= 5 IEnMin= 5 EnMin= -651.626156277550     IErMin= 5 ErrMin= 4.31D-04
 ErrMax= 4.31D-04  0.00D+00 EMaxC= 1.00D-01 BMatC= 1.62D-04 BMatP= 6.17D-03
 IDIUse=3 WtCom= 9.96D-01 WtEn= 4.31D-03
 Coeff-Com: -0.559D-03 0.206D-01 0.103D+00 0.248D+00 0.630D+00
 Coeff-En:   0.000D+00 0.000D+00 0.000D+00 0.000D+00 0.100D+01
 Coeff:     -0.557D-03 0.205D-01 0.102D+00 0.247D+00 0.631D+00
 Gap=     0.175 Goal=   None    Shift=    0.000
 RMSDP=9.39D-05 MaxDP=3.16D-03 DE=-5.17D-03 OVMax= 9.27D-03

 Cycle   6  Pass 1  IDiag  1:
 RMSU=  5.81D-05    CP:  9.69D-01  9.62D-01  7.52D-01  6.08D-01  7.48D-01
 E= -651.626275052366     Delta-E=       -0.000118774816 Rises=F Damp=F
 DIIS: error= 2.62D-04 at cycle   6 NSaved=   6.
 NSaved= 6 IEnMin= 6 EnMin= -651.626275052366     IErMin= 6 ErrMin= 2.62D-04
 ErrMax= 2.62D-04  0.00D+00 EMaxC= 1.00D-01 BMatC= 4.47D-05 BMatP= 1.62D-04
 IDIUse=3 WtCom= 9.97D-01 WtEn= 2.62D-03
 Coeff-Com: -0.412D-03-0.217D-03 0.333D-01 0.979D-01 0.399D+00 0.471D+00
 Coeff-En:   0.000D+00 0.000D+00 0.000D+00 0.000D+00 0.222D+00 0.778D+00
 Coeff:     -0.411D-03-0.217D-03 0.332D-01 0.977D-01 0.398D+00 0.472D+00
 Gap=     0.176 Goal=   None    Shift=    0.000
 RMSDP=3.20D-05 MaxDP=1.33D-03 DE=-1.19D-04 OVMax= 3.80D-03

 Cycle   7  Pass 1  IDiag  1:
 RMSU=  1.44D-05    CP:  9.69D-01  9.62D-01  7.55D-01  6.07D-01  7.72D-01
                    CP:  5.25D-01
 E= -651.626320181395     Delta-E=       -0.000045129029 Rises=F Damp=F
 DIIS: error= 4.51D-05 at cycle   7 NSaved=   7.
 NSaved= 7 IEnMin= 7 EnMin= -651.626320181395     IErMin= 7 ErrMin= 4.51D-05
 ErrMax= 4.51D-05  0.00D+00 EMaxC= 1.00D-01 BMatC= 1.36D-06 BMatP= 4.47D-05
 IDIUse=1 WtCom= 1.00D+00 WtEn= 0.00D+00
 Coeff-Com: -0.132D-03-0.131D-02 0.108D-01 0.336D-01 0.163D+00 0.234D+00
 Coeff-Com:  0.561D+00
 Coeff:     -0.132D-03-0.131D-02 0.108D-01 0.336D-01 0.163D+00 0.234D+00
 Coeff:      0.561D+00
 Gap=     0.176 Goal=   None    Shift=    0.000
 RMSDP=6.79D-06 MaxDP=2.22D-04 DE=-4.51D-05 OVMax= 3.74D-04

 Cycle   8  Pass 1  IDiag  1:
 RMSU=  4.29D-06    CP:  9.69D-01  9.62D-01  7.55D-01  6.09D-01  7.71D-01
                    CP:  5.27D-01  6.77D-01
 E= -651.626321387944     Delta-E=       -0.000001206549 Rises=F Damp=F
 DIIS: error= 9.74D-06 at cycle   8 NSaved=   8.
 NSaved= 8 IEnMin= 8 EnMin= -651.626321387944     IErMin= 8 ErrMin= 9.74D-06
 ErrMax= 9.74D-06  0.00D+00 EMaxC= 1.00D-01 BMatC= 1.08D-07 BMatP= 1.36D-06
 IDIUse=1 WtCom= 1.00D+00 WtEn= 0.00D+00
 Coeff-Com:  0.160D-04-0.672D-03 0.176D-02 0.558D-02 0.368D-01 0.605D-01
 Coeff-Com:  0.256D+00 0.640D+00
 Coeff:      0.160D-04-0.672D-03 0.176D-02 0.558D-02 0.368D-01 0.605D-01
 Coeff:      0.256D+00 0.640D+00
 Gap=     0.176 Goal=   None    Shift=    0.000
 RMSDP=2.16D-06 MaxDP=1.26D-04 DE=-1.21D-06 OVMax= 5.74D-05

 Cycle   9  Pass 1  IDiag  1:
 RMSU=  1.37D-06    CP:  9.69D-01  9.61D-01  7.55D-01  6.08D-01  7.75D-01
                    CP:  5.34D-01  7.08D-01  7.53D-01
 E= -651.626321470371     Delta-E=       -0.000000082427 Rises=F Damp=F
 DIIS: error= 5.81D-06 at cycle   9 NSaved=   9.
 NSaved= 9 IEnMin= 9 EnMin= -651.626321470371     IErMin= 9 ErrMin= 5.81D-06
 ErrMax= 5.81D-06  0.00D+00 EMaxC= 1.00D-01 BMatC= 1.75D-08 BMatP= 1.08D-07
 IDIUse=1 WtCom= 1.00D+00 WtEn= 0.00D+00
 Coeff-Com:  0.234D-04-0.307D-03 0.306D-03 0.869D-03 0.101D-01 0.175D-01
 Coeff-Com:  0.105D+00 0.364D+00 0.502D+00
 Coeff:      0.234D-04-0.307D-03 0.306D-03 0.869D-03 0.101D-01 0.175D-01
 Coeff:      0.105D+00 0.364D+00 0.502D+00
 Gap=     0.176 Goal=   None    Shift=    0.000
 RMSDP=7.55D-07 MaxDP=3.70D-05 DE=-8.24D-08 OVMax= 3.26D-05

 Cycle  10  Pass 1  IDiag  1:
 RMSU=  4.83D-07    CP:  9.69D-01  9.61D-01  7.55D-01  6.08D-01  7.75D-01
                    CP:  5.34D-01  7.12D-01  7.94D-01  6.41D-01
 E= -651.626321482200     Delta-E=       -0.000000011829 Rises=F Damp=F
 DIIS: error= 3.07D-06 at cycle  10 NSaved=  10.
 NSaved=10 IEnMin=10 EnMin= -651.626321482200     IErMin=10 ErrMin= 3.07D-06
 ErrMax= 3.07D-06  0.00D+00 EMaxC= 1.00D-01 BMatC= 2.43D-09 BMatP= 1.75D-08
 IDIUse=1 WtCom= 1.00D+00 WtEn= 0.00D+00
 Coeff-Com:  0.146D-04-0.717D-04-0.123D-03-0.509D-03-0.356D-03-0.706D-03
 Coeff-Com:  0.177D-01 0.105D+00 0.299D+00 0.580D+00
 Coeff:      0.146D-04-0.717D-04-0.123D-03-0.509D-03-0.356D-03-0.706D-03
 Coeff:      0.177D-01 0.105D+00 0.299D+00 0.580D+00
 Gap=     0.176 Goal=   None    Shift=    0.000
 RMSDP=2.77D-07 MaxDP=1.45D-05 DE=-1.18D-08 OVMax= 1.08D-05

 Cycle  11  Pass 1  IDiag  1:
 RMSU=  1.64D-07    CP:  9.69D-01  9.61D-01  7.56D-01  6.08D-01  7.75D-01
                    CP:  5.34D-01  7.15D-01  8.07D-01  7.11D-01  6.61D-01
 E= -651.626321484059     Delta-E=       -0.000000001858 Rises=F Damp=F
 DIIS: error= 6.16D-07 at cycle  11 NSaved=  11.
 NSaved=11 IEnMin=11 EnMin= -651.626321484059     IErMin=11 ErrMin= 6.16D-07
 ErrMax= 6.16D-07  0.00D+00 EMaxC= 1.00D-01 BMatC= 2.02D-10 BMatP= 2.43D-09
 IDIUse=1 WtCom= 1.00D+00 WtEn= 0.00D+00
 Coeff-Com:  0.668D-05-0.144D-04-0.839D-04-0.338D-03-0.921D-03-0.189D-02
 Coeff-Com:  0.112D-02 0.256D-01 0.117D+00 0.310D+00 0.549D+00
 Coeff:      0.668D-05-0.144D-04-0.839D-04-0.338D-03-0.921D-03-0.189D-02
 Coeff:      0.112D-02 0.256D-01 0.117D+00 0.310D+00 0.549D+00
 Gap=     0.176 Goal=   None    Shift=    0.000
 RMSDP=8.12D-08 MaxDP=3.84D-06 DE=-1.86D-09 OVMax= 2.91D-06

 Cycle  12  Pass 1  IDiag  1:
 RMSU=  5.47D-08    CP:  9.69D-01  9.61D-01  7.56D-01  6.08D-01  7.75D-01
                    CP:  5.33D-01  7.15D-01  8.12D-01  7.12D-01  7.13D-01
                    CP:  7.78D-01
 E= -651.626321484216     Delta-E=       -0.000000000157 Rises=F Damp=F
 DIIS: error= 1.77D-07 at cycle  12 NSaved=  12.
 NSaved=12 IEnMin=12 EnMin= -651.626321484216     IErMin=12 ErrMin= 1.77D-07
 ErrMax= 1.77D-07  0.00D+00 EMaxC= 1.00D-01 BMatC= 1.96D-11 BMatP= 2.02D-10
 IDIUse=1 WtCom= 1.00D+00 WtEn= 0.00D+00
 Coeff-Com:  0.154D-05 0.117D-05-0.244D-04-0.105D-03-0.397D-03-0.924D-03
 Coeff-Com: -0.164D-02-0.149D-02 0.197D-01 0.829D-01 0.278D+00 0.624D+00
 Coeff:      0.154D-05 0.117D-05-0.244D-04-0.105D-03-0.397D-03-0.924D-03
 Coeff:     -0.164D-02-0.149D-02 0.197D-01 0.829D-01 0.278D+00 0.624D+00
 Gap=     0.176 Goal=   None    Shift=    0.000
 RMSDP=2.40D-08 MaxDP=8.41D-07 DE=-1.57D-10 OVMax= 6.96D-07

 Cycle  13  Pass 1  IDiag  1:
 RMSU=  1.44D-08    CP:  9.69D-01  9.61D-01  7.56D-01  6.08D-01  7.75D-01
                    CP:  5.33D-01  7.15D-01  8.12D-01  7.18D-01  7.25D-01
                    CP:  8.07D-01  8.06D-01
 E= -651.626321484223     Delta-E=       -0.000000000008 Rises=F Damp=F
 DIIS: error= 3.26D-08 at cycle  13 NSaved=  13.
 NSaved=13 IEnMin=13 EnMin= -651.626321484223     IErMin=13 ErrMin= 3.26D-08
 ErrMax= 3.26D-08  0.00D+00 EMaxC= 1.00D-01 BMatC= 1.42D-12 BMatP= 1.96D-11
 IDIUse=1 WtCom= 1.00D+00 WtEn= 0.00D+00
 Coeff-Com:  0.344D-06 0.121D-05-0.449D-05-0.244D-04-0.104D-03-0.295D-03
 Coeff-Com: -0.717D-03-0.237D-02 0.993D-03 0.172D-01 0.905D-01 0.293D+00
 Coeff-Com:  0.601D+00
 Coeff:      0.344D-06 0.121D-05-0.449D-05-0.244D-04-0.104D-03-0.295D-03
 Coeff:     -0.717D-03-0.237D-02 0.993D-03 0.172D-01 0.905D-01 0.293D+00
 Coeff:      0.601D+00
 Gap=     0.176 Goal=   None    Shift=    0.000
 RMSDP=6.83D-09 MaxDP=2.58D-07 DE=-7.50D-12 OVMax= 2.84D-07

 Error on total polarization charges =  0.00884
 SCF Done:  E(RB3LYP) =  -651.626321484     A.U. after   13 cycles
            NFock= 13  Conv=0.68D-08     -V/T= 2.0094
 KE= 6.455433605697D+02 PE=-3.422661448026D+03 EE= 1.172733731894D+03
 Leave Link  502 at Tue Jan 20 11:09:13 2026, MaxMem=  4294967296 cpu:             272.7 elap:              17.2
 (Enter /root/g16/l801.exe)
 DoSCS=F DFT=T ScalE2(SS,OS)=  1.000000  1.000000
 Range of M.O.s used for correlation:     1   256
 NBasis=   256 NAE=    51 NBE=    51 NFC=     0 NFV=     0
 NROrb=    256 NOA=    51 NOB=    51 NVA=   205 NVB=   205
 Leave Link  801 at Tue Jan 20 11:09:13 2026, MaxMem=  4294967296 cpu:               0.1 elap:               0.0
 (Enter /root/g16/l1101.exe)
 Using compressed storage, NAtomX=    26.
 Will process     27 centers per pass.
   1 Symmetry operations used in ECPInt.
 ECPInt:  NShTT=    7260 NPrTT=   26324 LenC2=    7150 LenP2D=   19950.
 LDataN:  DoStor=T MaxTD1= 5 Len=  102
 R6Disp: Adding Grimme-D3(BJ) dispersion energy 1st derivatives to the gradient.
 Leave Link 1101 at Tue Jan 20 11:09:14 2026, MaxMem=  4294967296 cpu:               3.8 elap:               0.3
 (Enter /root/g16/l1102.exe)
 Symmetrizing basis deriv contribution to polar:
 IMax=3 JMax=2 DiffMx= 0.00D+00
 Leave Link 1102 at Tue Jan 20 11:09:14 2026, MaxMem=  4294967296 cpu:               0.3 elap:               0.0
 (Enter /root/g16/l1110.exe)
 Forming Gx(P) for the SCF density, NAtomX=    26.
 Integral derivatives from FoFJK, PRISM(SPDF).
 Do as many integral derivatives as possible in FoFJK.
 G2DrvN: MDV=    4294965288.
 G2DrvN: will do    27 centers at a time, making    1 passes.
 Calling FoFCou, ICntrl=  3107 FMM=F I1Cent=   0 AccDes= 0.00D+00.
 FoFJK:  IHMeth= 1 ICntrl=    3107 DoSepK=F KAlg= 0 I1Cent=           0 FoldK=F
 IRaf=         0 NMat=       1 IRICut=       1 DoRegI=T DoRafI=F ISym2E= 0 IDoP0=0 IntGTp=1.
 FoFCou: FMM=F IPFlag=           0 FMFlag=      100000 FMFlg1=           0
         NFxFlg=           0 DoJE=F BraDBF=F KetDBF=F FulRan=T
         wScrn=  0.000000 ICntrl=      3107 IOpCl=  0 I1Cent=           0 NGrid=           0
         NMat0=    1 NMatS0=      1 NMatT0=    0 NMatD0=    1 NMtDS0=    0 NMtDT0=    0
 Symmetry not used in FoFCou.
 NEqPCM:  Using equilibrium solvation (IEInf=0, Eps=  20.4930, EpsInf=   1.8463)
 G2PCM: DoFxE=T DoFxN=T DoGrad=T DoDP/DQ/DG/TGxP=FFFF NFrqRd=   0 IEInf=0 SqF1=F DoCFld=F IF1Alg=4.
 GePol: Maximum number of non-zero 1st derivatives   =     226
 End of G2Drv F.D. properties file   721 does not exist.
 End of G2Drv F.D. properties file   722 does not exist.
 End of G2Drv F.D. properties file   788 does not exist.
 Leave Link 1110 at Tue Jan 20 11:09:39 2026, MaxMem=  4294967296 cpu:             395.4 elap:              24.7
 (Enter /root/g16/l1002.exe)
 Minotr:  Closed shell wavefunction.
          IDoAtm=11111111111111111111111111
 NEqPCM:  Using equilibrium solvation (IEInf=0, Eps=  20.4930, EpsInf=   1.8463)
          Direct CPHF calculation.
          Differentiating once with respect to nuclear coordinates.
          Requested convergence is 1.0D-08 RMS, and 1.0D-07 maximum.
          Secondary convergence is 1.0D-12 RMS, and 1.0D-12 maximum.
          NewPWx=T KeepS1=F KeepF1=F KeepIn=T MapXYZ=F SortEE=F KeepMc=T.
         7763 words used for storage of precomputed grid.
 Keep R1 ints in memory in canonical form, NReq=558668835.
 FoFCou: FMM=F IPFlag=           0 FMFlag=           0 FMFlg1=           0
         NFxFlg=           0 DoJE=F BraDBF=F KetDBF=F FulRan=T
         wScrn=  0.000000 ICntrl=       600 IOpCl=  0 I1Cent=           0 NGrid=           0
         NMat0=    1 NMatS0=  32896 NMatT0=    0 NMatD0=    1 NMtDS0=    0 NMtDT0=    0
 Symmetry not used in FoFCou.
 Two-electron integral symmetry not used.
          MDV=    4294967296 using IRadAn=       1.
          Solving linear equations simultaneously, MaxMat=       0.
          There are    81 degrees of freedom in the 1st order CPHF.  IDoFFX=6 NUNeed=     0.
     75 vectors produced by pass  0 Test12= 1.29D-14 1.23D-09 XBig12= 1.70D-01 9.18D-02.
 AX will form    75 AO Fock derivatives at one time.
     75 vectors produced by pass  1 Test12= 1.29D-14 1.23D-09 XBig12= 3.04D-02 5.90D-02.
     75 vectors produced by pass  2 Test12= 1.29D-14 1.23D-09 XBig12= 3.23D-04 2.98D-03.
     75 vectors produced by pass  3 Test12= 1.29D-14 1.23D-09 XBig12= 1.52D-06 1.46D-04.
     75 vectors produced by pass  4 Test12= 1.29D-14 1.23D-09 XBig12= 5.21D-09 7.58D-06.
     53 vectors produced by pass  5 Test12= 1.29D-14 1.23D-09 XBig12= 6.29D-12 2.32D-07.
     12 vectors produced by pass  6 Test12= 1.29D-14 1.23D-09 XBig12= 6.16D-15 6.46D-09.
 InvSVY:  IOpt=1 It=  1 EMax= 4.44D-16
 Solved reduced A of dimension   440 with    81 vectors.
 End of Minotr F.D. properties file   721 does not exist.
 End of Minotr F.D. properties file   722 does not exist.
 End of Minotr F.D. properties file   788 does not exist.
 Leave Link 1002 at Tue Jan 20 11:10:09 2026, MaxMem=  4294967296 cpu:             481.9 elap:              30.1
 (Enter /root/g16/l601.exe)
 Copying SCF densities to generalized density rwf, IOpCl= 0 IROHF=0.

 **********************************************************************

            Population analysis using the SCF density.

 **********************************************************************

 Orbital symmetries:
       Occupied  (A) (A) (A) (A) (A) (A) (A) (A) (A) (A) (A) (A)
                 (A) (A) (A) (A) (A) (A) (A) (A) (A) (A) (A) (A)
                 (A) (A) (A) (A) (A) (A) (A) (A) (A) (A) (A) (A)
                 (A) (A) (A) (A) (A) (A) (A) (A) (A) (A) (A) (A)
                 (A) (A) (A)
       Virtual   (A) (A) (A) (A) (A) (A) (A) (A) (A) (A) (A) (A)
                 (A) (A) (A) (A) (A) (A) (A) (A) (A) (A) (A) (A)
                 (A) (A) (A) (A) (A) (A) (A) (A) (A) (A) (A) (A)
                 (A) (A) (A) (A) (A) (A) (A) (A) (A) (A) (A) (A)
                 (A) (A) (A) (A) (A) (A) (A) (A) (A) (A) (A) (A)
                 (A) (A) (A) (A) (A) (A) (A) (A) (A) (A) (A) (A)
                 (A) (A) (A) (A) (A) (A) (A) (A) (A) (A) (A) (A)
                 (A) (A) (A) (A) (A) (A) (A) (A) (A) (A) (A) (A)
                 (A) (A) (A) (A) (A) (A) (A) (A) (A) (A) (A) (A)
                 (A) (A) (A) (A) (A) (A) (A) (A) (A) (A) (A) (A)
                 (A) (A) (A) (A) (A) (A) (A) (A) (A) (A) (A) (A)
                 (A) (A) (A) (A) (A) (A) (A) (A) (A) (A) (A) (A)
                 (A) (A) (A) (A) (A) (A) (A) (A) (A) (A) (A) (A)
                 (A) (A) (A) (A) (A) (A) (A) (A) (A) (A) (A) (A)
                 (A) (A) (A) (A) (A) (A) (A) (A) (A) (A) (A) (A)
                 (A) (A) (A) (A) (A) (A) (A) (A) (A) (A) (A) (A)
                 (A) (A) (A) (A) (A) (A) (A) (A) (A) (A) (A) (A)
                 (A)
 The electronic state is 1-A.
 Alpha  occ. eigenvalues --  -19.15197 -19.13870 -19.12727 -10.28356 -10.27299
 Alpha  occ. eigenvalues --  -10.25772 -10.24347 -10.22271 -10.20884 -10.20266
 Alpha  occ. eigenvalues --  -10.20066 -10.19646 -10.19505 -10.19498  -1.06867
 Alpha  occ. eigenvalues --   -1.04863  -1.03182  -0.85466  -0.79950  -0.79292
 Alpha  occ. eigenvalues --   -0.76630  -0.72394  -0.64435  -0.64252  -0.62023
 Alpha  occ. eigenvalues --   -0.57870  -0.54805  -0.53230  -0.51993  -0.51319
 Alpha  occ. eigenvalues --   -0.48556  -0.47819  -0.45878  -0.44855  -0.43955
 Alpha  occ. eigenvalues --   -0.42810  -0.42373  -0.41804  -0.41028  -0.39336
 Alpha  occ. eigenvalues --   -0.38718  -0.37092  -0.36818  -0.36199  -0.35482
 Alpha  occ. eigenvalues --   -0.34858  -0.33533  -0.30142  -0.27699  -0.26235
 Alpha  occ. eigenvalues --   -0.24297
 Alpha virt. eigenvalues --   -0.06742  -0.02880   0.03588   0.05222   0.06701
 Alpha virt. eigenvalues --    0.08264   0.09725   0.10507   0.11502   0.12280
 Alpha virt. eigenvalues --    0.12748   0.13375   0.14130   0.15003   0.15342
 Alpha virt. eigenvalues --    0.16072   0.17932   0.18766   0.20579   0.21277
 Alpha virt. eigenvalues --    0.22460   0.24459   0.25319   0.25864   0.26939
 Alpha virt. eigenvalues --    0.28562   0.29828   0.32613   0.33940   0.35694
 Alpha virt. eigenvalues --    0.37656   0.41484   0.42925   0.43494   0.43971
 Alpha virt. eigenvalues --    0.46931   0.48034   0.48944   0.50562   0.51204
 Alpha virt. eigenvalues --    0.52485   0.54422   0.55511   0.56210   0.57414
 Alpha virt. eigenvalues --    0.57723   0.58972   0.59560   0.60660   0.61217
 Alpha virt. eigenvalues --    0.61845   0.63060   0.63802   0.64442   0.65266
 Alpha virt. eigenvalues --    0.66021   0.66066   0.67008   0.67082   0.67716
 Alpha virt. eigenvalues --    0.67923   0.68313   0.68865   0.69905   0.70279
 Alpha virt. eigenvalues --    0.70893   0.71808   0.72818   0.74543   0.75561
 Alpha virt. eigenvalues --    0.77845   0.79652   0.81787   0.84335   0.85498
 Alpha virt. eigenvalues --    0.86090   0.88224   0.92015   0.94575   0.95913
 Alpha virt. eigenvalues --    0.98769   0.99520   1.03096   1.06342   1.09130
 Alpha virt. eigenvalues --    1.10133   1.13997   1.14723   1.16344   1.17314
 Alpha virt. eigenvalues --    1.19770   1.20736   1.25291   1.26907   1.28318
 Alpha virt. eigenvalues --    1.30398   1.31698   1.36339   1.39090   1.41244
 Alpha virt. eigenvalues --    1.42250   1.43880   1.45656   1.48635   1.52728
 Alpha virt. eigenvalues --    1.54967   1.55476   1.56892   1.60686   1.62660
 Alpha virt. eigenvalues --    1.65647   1.66530   1.67510   1.69747   1.71069
 Alpha virt. eigenvalues --    1.71878   1.73362   1.74265   1.75322   1.75924
 Alpha virt. eigenvalues --    1.77618   1.78565   1.78966   1.80140   1.80634
 Alpha virt. eigenvalues --    1.81972   1.83277   1.83822   1.84835   1.86019
 Alpha virt. eigenvalues --    1.87350   1.88771   1.89357   1.90074   1.91195
 Alpha virt. eigenvalues --    1.92563   1.94097   1.95121   1.96727   1.97655
 Alpha virt. eigenvalues --    1.98603   2.00909   2.02400   2.05391   2.06826
 Alpha virt. eigenvalues --    2.08705   2.10178   2.12765   2.14112   2.16329
 Alpha virt. eigenvalues --    2.18274   2.19328   2.21684   2.24392   2.24429
 Alpha virt. eigenvalues --    2.27034   2.30230   2.30701   2.31592   2.33401
 Alpha virt. eigenvalues --    2.37099   2.37594   2.40041   2.42614   2.46629
 Alpha virt. eigenvalues --    2.48282   2.51732   2.53802   2.55683   2.57888
 Alpha virt. eigenvalues --    2.60086   2.60609   2.63742   2.66531   2.68727
 Alpha virt. eigenvalues --    2.69723   2.71116   2.72701   2.75733   2.77448
 Alpha virt. eigenvalues --    2.79327   2.81786   2.84410   2.87939   2.89600
 Alpha virt. eigenvalues --    2.90581   2.91536   2.93769   2.94969   2.97779
 Alpha virt. eigenvalues --    3.01079   3.03351   3.05137   3.06113   3.08849
 Alpha virt. eigenvalues --    3.13829   3.16048   3.18647   3.22929   3.31506
 Alpha virt. eigenvalues --    3.38906   3.40586   3.58111   3.62632   3.63789
          Condensed to atoms (all electrons):
               1          2          3          4          5          6
     1  O    7.668911   0.721353  -0.095217   0.006638  -0.000101   0.000003
     2  C    0.721353   4.884906   0.182900   0.089349   0.007229  -0.000432
     3  C   -0.095217   0.182900   5.482230   0.244860  -0.056359  -0.007139
     4  C    0.006638   0.089349   0.244860   5.521645   0.397430  -0.050184
     5  C   -0.000101   0.007229  -0.056359   0.397430   4.542152   0.435139
     6  C    0.000003  -0.000432  -0.007139  -0.050184   0.435139   4.537903
     7  C    0.000000  -0.000097  -0.002592  -0.018203  -0.068980   0.437909
     8  C    0.000022   0.003729   0.000579  -0.003521  -0.023172  -0.032917
     9  O    0.000004  -0.000401   0.001548  -0.004779   0.000569  -0.006129
    10  C    0.000067  -0.021646  -0.011046  -0.018197   0.011844  -0.006744
    11  C    0.000071  -0.050105   0.025198  -0.054620  -0.001681   0.000072
    12  C   -0.085743   0.209389  -0.152069  -0.004380  -0.000290   0.000012
    13  O    0.001478  -0.028875   0.001820  -0.052095   0.003175   0.000131
    14  C    0.000704  -0.036984  -0.006347   0.201716  -0.069112  -0.004528
    15  H    0.005722  -0.050368   0.410428  -0.060974  -0.016961  -0.000639
    16  H   -0.000004   0.001008  -0.019180  -0.001438   0.339510  -0.003211
    17  H    0.000002  -0.000892   0.011539  -0.011354   0.349152  -0.010613
    18  H   -0.000000   0.000025   0.000104   0.008854  -0.017413   0.361459
    19  H   -0.000002  -0.000850   0.006283  -0.013462  -0.008035   0.361143
    20  H   -0.000000  -0.000106   0.000747  -0.013976   0.003502  -0.020425
    21  H    0.000000   0.000006  -0.000076   0.001360   0.009064   0.007963
    22  H   -0.000009   0.000047   0.000353   0.005868  -0.000302   0.000430
    23  H    0.002969   0.000814   0.000123   0.001062   0.000090   0.000048
    24  H   -0.000224   0.006211  -0.001546   0.001363   0.000001  -0.000025
    25  H    0.008729  -0.019438   0.013245   0.000410   0.000084   0.000002
    26  H    0.000015   0.001003   0.008379  -0.028445  -0.008027  -0.001404
               7          8          9         10         11         12
     1  O    0.000000   0.000022   0.000004   0.000067   0.000071  -0.085743
     2  C   -0.000097   0.003729  -0.000401  -0.021646  -0.050105   0.209389
     3  C   -0.002592   0.000579   0.001548  -0.011046   0.025198  -0.152069
     4  C   -0.018203  -0.003521  -0.004779  -0.018197  -0.054620  -0.004380
     5  C   -0.068980  -0.023172   0.000569   0.011844  -0.001681  -0.000290
     6  C    0.437909  -0.032917  -0.006129  -0.006744   0.000072   0.000012
     7  C    4.820295   0.369393  -0.082683  -0.176838   0.011823  -0.000085
     8  C    0.369393   4.896073   0.735492  -0.013249   0.006342  -0.004987
     9  O   -0.082683   0.735492   7.649764  -0.139034   0.008499  -0.000456
    10  C   -0.176838  -0.013249  -0.139034   5.916900   0.218236  -0.049588
    11  C    0.011823   0.006342   0.008499   0.218236   4.733440   0.347186
    12  C   -0.000085  -0.004987  -0.000456  -0.049588   0.347186   5.084076
    13  O   -0.000422   0.003741  -0.000021  -0.055904  -0.063699   0.265347
    14  C    0.026089   0.036665   0.006353   0.165015  -0.018289  -0.053790
    15  H    0.000152   0.000665   0.000057  -0.001863  -0.000659   0.016587
    16  H    0.009712   0.000640  -0.000013  -0.001293   0.000066  -0.000247
    17  H   -0.009134  -0.003217  -0.000042   0.002123  -0.000059   0.000401
    18  H   -0.009888   0.007691  -0.000113  -0.000797   0.000033  -0.000008
    19  H   -0.043910  -0.003298   0.008687   0.003294  -0.000043   0.000120
    20  H    0.333012   0.001870   0.003816  -0.003678   0.000716  -0.000025
    21  H    0.306097   0.001092   0.004074   0.019163  -0.000804   0.000013
    22  H   -0.002973   0.022216   0.002008   0.244034   0.020972  -0.002626
    23  H    0.003230  -0.016241   0.027176  -0.003622   0.319974  -0.004997
    24  H   -0.000411   0.005956   0.000372   0.014643   0.307176   0.017326
    25  H    0.000016  -0.000781  -0.000025   0.010868  -0.007997   0.324374
    26  H    0.003888  -0.008621  -0.000187   0.003312   0.009960   0.003362
              13         14         15         16         17         18
     1  O    0.001478   0.000704   0.005722  -0.000004   0.000002  -0.000000
     2  C   -0.028875  -0.036984  -0.050368   0.001008  -0.000892   0.000025
     3  C    0.001820  -0.006347   0.410428  -0.019180   0.011539   0.000104
     4  C   -0.052095   0.201716  -0.060974  -0.001438  -0.011354   0.008854
     5  C    0.003175  -0.069112  -0.016961   0.339510   0.349152  -0.017413
     6  C    0.000131  -0.004528  -0.000639  -0.003211  -0.010613   0.361459
     7  C   -0.000422   0.026089   0.000152   0.009712  -0.009134  -0.009888
     8  C    0.003741   0.036665   0.000665   0.000640  -0.003217   0.007691
     9  O   -0.000021   0.006353   0.000057  -0.000013  -0.000042  -0.000113
    10  C   -0.055904   0.165015  -0.001863  -0.001293   0.002123  -0.000797
    11  C   -0.063699  -0.018289  -0.000659   0.000066  -0.000059   0.000033
    12  C    0.265347  -0.053790   0.016587  -0.000247   0.000401  -0.000008
    13  O    7.999712   0.311818  -0.000872  -0.000212   0.000251   0.000003
    14  C    0.311818   4.830201   0.011054   0.012236  -0.013611  -0.000029
    15  H   -0.000872   0.011054   0.696927   0.005777   0.000336  -0.000098
    16  H   -0.000212   0.012236   0.005777   0.684642  -0.029659  -0.002661
    17  H    0.000251  -0.013611   0.000336  -0.029659   0.690558  -0.011177
    18  H    0.000003  -0.000029  -0.000098  -0.002661  -0.011177   0.679930
    19  H    0.000001  -0.001296   0.000971  -0.011085   0.008414  -0.025761
    20  H    0.000085   0.005824  -0.000007   0.000019   0.004240  -0.005579
    21  H    0.000002  -0.001974  -0.000008  -0.000479   0.000143  -0.011885
    22  H    0.001655   0.024727   0.000034   0.000033  -0.000131   0.000037
    23  H    0.003862  -0.003084  -0.000298  -0.000007  -0.000007   0.000008
    24  H    0.002201  -0.001236   0.000042  -0.000000   0.000003  -0.000000
    25  H   -0.017821   0.000755  -0.000563  -0.000002   0.000002   0.000000
    26  H   -0.021107   0.347099  -0.000347  -0.000165   0.007271   0.000008
              19         20         21         22         23         24
     1  O   -0.000002  -0.000000   0.000000  -0.000009   0.002969  -0.000224
     2  C   -0.000850  -0.000106   0.000006   0.000047   0.000814   0.006211
     3  C    0.006283   0.000747  -0.000076   0.000353   0.000123  -0.001546
     4  C   -0.013462  -0.013976   0.001360   0.005868   0.001062   0.001363
     5  C   -0.008035   0.003502   0.009064  -0.000302   0.000090   0.000001
     6  C    0.361143  -0.020425   0.007963   0.000430   0.000048  -0.000025
     7  C   -0.043910   0.333012   0.306097  -0.002973   0.003230  -0.000411
     8  C   -0.003298   0.001870   0.001092   0.022216  -0.016241   0.005956
     9  O    0.008687   0.003816   0.004074   0.002008   0.027176   0.000372
    10  C    0.003294  -0.003678   0.019163   0.244034  -0.003622   0.014643
    11  C   -0.000043   0.000716  -0.000804   0.020972   0.319974   0.307176
    12  C    0.000120  -0.000025   0.000013  -0.002626  -0.004997   0.017326
    13  O    0.000001   0.000085   0.000002   0.001655   0.003862   0.002201
    14  C   -0.001296   0.005824  -0.001974   0.024727  -0.003084  -0.001236
    15  H    0.000971  -0.000007  -0.000008   0.000034  -0.000298   0.000042
    16  H   -0.011085   0.000019  -0.000479   0.000033  -0.000007  -0.000000
    17  H    0.008414   0.004240   0.000143  -0.000131  -0.000007   0.000003
    18  H   -0.025761  -0.005579  -0.011885   0.000037   0.000008  -0.000000
    19  H    0.693491   0.009957  -0.002898  -0.000071  -0.000199   0.000006
    20  H    0.009957   0.687883  -0.022744   0.001537  -0.000177  -0.000007
    21  H   -0.002898  -0.022744   0.669810  -0.001049  -0.000086   0.000021
    22  H   -0.000071   0.001537  -0.001049   0.660974   0.005054  -0.015853
    23  H   -0.000199  -0.000177  -0.000086   0.005054   0.671920  -0.022280
    24  H    0.000006  -0.000007   0.000021  -0.015853  -0.022280   0.682361
    25  H    0.000000   0.000002  -0.000000  -0.000051   0.004865  -0.017378
    26  H    0.000056  -0.000793   0.000021  -0.013901  -0.000517  -0.000184
              25         26
     1  O    0.008729   0.000015
     2  C   -0.019438   0.001003
     3  C    0.013245   0.008379
     4  C    0.000410  -0.028445
     5  C    0.000084  -0.008027
     6  C    0.000002  -0.001404
     7  C    0.000016   0.003888
     8  C   -0.000781  -0.008621
     9  O   -0.000025  -0.000187
    10  C    0.010868   0.003312
    11  C   -0.007997   0.009960
    12  C    0.324374   0.003362
    13  O   -0.017821  -0.021107
    14  C    0.000755   0.347099
    15  H   -0.000563  -0.000347
    16  H   -0.000002  -0.000165
    17  H    0.000002   0.007271
    18  H    0.000000   0.000008
    19  H    0.000000   0.000056
    20  H    0.000002  -0.000793
    21  H   -0.000000   0.000021
    22  H   -0.000051  -0.013901
    23  H    0.004865  -0.000517
    24  H   -0.017378  -0.000184
    25  H    0.695122  -0.000393
    26  H   -0.000393   0.687831
 Mulliken charges:
               1
     1  O   -0.235387
     2  C    0.102224
     3  C   -0.038768
     4  C   -0.144928
     5  C    0.171492
     6  C    0.002176
     7  C    0.094599
     8  C    0.017839
     9  O   -0.214539
    10  C   -0.106000
    11  C    0.188189
    12  C    0.091097
    13  O   -0.354253
    14  C    0.230027
    15  H   -0.015096
    16  H    0.016013
    17  H    0.015463
    18  H    0.027257
    19  H    0.018487
    20  H    0.014310
    21  H    0.023171
    22  H    0.046988
    23  H    0.010320
    24  H    0.021463
    25  H    0.005973
    26  H    0.011884
 Sum of Mulliken charges =  -0.00000
 Mulliken charges with hydrogens summed into heavy atoms:
               1
     1  O   -0.235387
     2  C    0.102224
     3  C   -0.053864
     4  C   -0.144928
     5  C    0.202968
     6  C    0.047920
     7  C    0.132080
     8  C    0.017839
     9  O   -0.214539
    10  C   -0.059012
    11  C    0.219973
    12  C    0.097070
    13  O   -0.354253
    14  C    0.241911
 APT charges:
               1
     1  O    0.694923
     2  C   -0.847495
     3  C   -0.538017
     4  C   -0.295537
     5  C   -0.485744
     6  C   -0.746006
     7  C   -0.452168
     8  C   -0.786588
     9  O    0.252234
    10  C   -0.411589
    11  C   -0.436776
    12  C   -0.483623
    13  O   -0.137421
    14  C   -0.407311
    15  H    0.410664
    16  H    0.446993
    17  H    0.379049
    18  H    0.662303
    19  H    0.155560
    20  H    0.242899
    21  H    0.588273
    22  H    0.480004
    23  H    0.160598
    24  H    0.539995
    25  H    0.585969
    26  H    0.428812
 Sum of APT charges =  -0.00000
 APT charges with hydrogens summed into heavy atoms:
               1
     1  O    0.694923
     2  C   -0.847495
     3  C   -0.127353
     4  C   -0.295537
     5  C    0.340298
     6  C    0.071857
     7  C    0.379004
     8  C   -0.786588
     9  O    0.252234
    10  C    0.068414
    11  C    0.263817
    12  C    0.102346
    13  O   -0.137421
    14  C    0.021500
 Electronic spatial extent (au):  <R**2>=           2162.6955
 Charge=             -0.0000 electrons
 Dipole moment (field-independent basis, Debye):
    X=             -5.4441    Y=             -0.1772    Z=              4.2629  Tot=              6.9167
 Quadrupole moment (field-independent basis, Debye-Ang):
   XX=            -84.3123   YY=            -78.6264   ZZ=            -89.7289
   XY=              7.8614   XZ=              0.6371   YZ=              4.5741
 Traceless Quadrupole moment (field-independent basis, Debye-Ang):
   XX=             -0.0898   YY=              5.5961   ZZ=             -5.5063
   XY=              7.8614   XZ=              0.6371   YZ=              4.5741
 Octapole moment (field-independent basis, Debye-Ang**2):
  XXX=            -38.9940  YYY=              0.0273  ZZZ=              8.9362  XYY=              0.4511
  XXY=             11.6886  XXZ=             22.4058  XZZ=            -14.7861  YZZ=             -2.7616
  YYZ=              7.7243  XYZ=             -8.5024
 Hexadecapole moment (field-independent basis, Debye-Ang**3):
 XXXX=          -1541.1348 YYYY=           -738.6717 ZZZZ=           -524.8919 XXXY=             32.9399
 XXXZ=             70.4847 YYYX=              7.0568 YYYZ=             21.7267 ZZZX=            -10.5945
 ZZZY=              5.1904 XXYY=           -373.7289 XXZZ=           -387.2452 YYZZ=           -217.6932
 XXYZ=            -12.1082 YYXZ=             -3.4799 ZZXY=             18.5327
 N-N= 9.527580340782D+02 E-N=-3.422661439222D+03  KE= 6.455433605697D+02
  Exact polarizability:   0.000   0.000   0.000   0.000   0.000   0.000
 Approx polarizability: 194.766   2.820 145.542 -34.336   2.518 176.962
 No NMR shielding tensors so no spin-rotation constants.
 Leave Link  601 at Tue Jan 20 11:10:09 2026, MaxMem=  4294967296 cpu:               1.9 elap:               0.1
 (Enter /root/g16/l701.exe)
 ... and contract with generalized density number  0.
 Compute integral second derivatives.
 R6Disp: Adding Grimme-D3(BJ) dispersion energy 2nd derivatives to the Hessian.
   1 Symmetry operations used in ECPInt.
 ECPInt:  NShTT=    7260 NPrTT=   26324 LenC2=    7150 LenP2D=   19950.
 LDataN:  DoStor=T MaxTD1= 6 Len=  172
 D2PCM: PCM CHGder 2nd derivatives, FixD1E=F FixD2E=F DoIter=F DoCFld=F I1PDM=0
 GePol: Maximum number of non-zero 2nd derivatives   =     226
 Leave Link  701 at Tue Jan 20 11:10:12 2026, MaxMem=  4294967296 cpu:              39.7 elap:               2.5
 (Enter /root/g16/l702.exe)
 L702 exits ... SP integral derivatives will be done elsewhere.
 Leave Link  702 at Tue Jan 20 11:10:12 2026, MaxMem=  4294967296 cpu:               0.1 elap:               0.0
 (Enter /root/g16/l703.exe)
 Integral derivatives from FoFJK, PRISM(SPDF).
 Compute integral second derivatives, UseDBF=F ICtDFT=           0.
 Calling FoFJK, ICntrl=    100147 FMM=F ISym2X=0 I1Cent= 0 IOpClX= 0 NMat=1 NMatS=1 NMatT=0.
 FoFJK:  IHMeth= 1 ICntrl=  100147 DoSepK=F KAlg= 0 I1Cent=           0 FoldK=F
 IRaf=         0 NMat=       1 IRICut=       1 DoRegI=T DoRafI=F ISym2E= 0 IDoP0=0 IntGTp=1.
 FoFCou: FMM=F IPFlag=           0 FMFlag=      100000 FMFlg1=         800
         NFxFlg=           0 DoJE=F BraDBF=F KetDBF=F FulRan=T
         wScrn=  0.000000 ICntrl=    100147 IOpCl=  0 I1Cent=           0 NGrid=           0
         NMat0=    1 NMatS0=      1 NMatT0=    0 NMatD0=    1 NMtDS0=    0 NMtDT0=    0
 Symmetry not used in FoFCou.
 Leave Link  703 at Tue Jan 20 11:10:48 2026, MaxMem=  4294967296 cpu:             588.1 elap:              36.8
 (Enter /root/g16/l716.exe)
 Dipole        =-2.14185588D+00-6.97302670D-02 1.67713600D+00
 Polarizability= 0.00000000D+00 0.00000000D+00 0.00000000D+00
                 0.00000000D+00 0.00000000D+00 0.00000000D+00
 ***** Axes restored to original set *****
 -------------------------------------------------------------------
 Center     Atomic                   Forces (Hartrees/Bohr)
 Number     Number              X              Y              Z
 -------------------------------------------------------------------
      1        8           0.005415981   -0.000158366    0.005647387
      2        6           0.001328544   -0.001269306   -0.007322499
      3        6           0.004757585    0.002387341    0.003214053
      4        6          -0.002354408    0.007751795   -0.010530239
      5        6          -0.000001608   -0.004178222    0.007429148
      6        6           0.001386046   -0.000308700   -0.008311785
      7        6          -0.000070705    0.002423400    0.010673622
      8        6          -0.002411821   -0.004325119   -0.013724472
      9        8          -0.000372913   -0.002849112    0.010415725
     10        6           0.004094304   -0.001393463    0.005095179
     11        6           0.001275650    0.004590792   -0.001615246
     12        6           0.002338593   -0.005673903    0.004296465
     13        8           0.001627367    0.001218866   -0.003458740
     14        6          -0.001170548   -0.001417689   -0.001308078
     15        1          -0.001636981    0.006213679    0.007150975
     16        1           0.000536048    0.006301629    0.001877707
     17        1          -0.001897758    0.001916767   -0.005969892
     18        1          -0.006240770    0.002880608    0.000648890
     19        1           0.000104754    0.000293094    0.006324165
     20        1          -0.001714434   -0.000905479   -0.007222620
     21        1          -0.004352127   -0.003974333    0.000897104
     22        1          -0.002947028   -0.002667900   -0.004220053
     23        1          -0.000540486   -0.002826670    0.004617035
     24        1           0.001977949   -0.005231337   -0.002809275
     25        1           0.004960663   -0.000302717    0.000809217
     26        1          -0.004091896    0.001504343   -0.002603772
 -------------------------------------------------------------------
 Cartesian Forces:  Max     0.013724472 RMS     0.004508558
 FormGI is forming the generalized inverse of G from B-inverse, IUseBI=4.
 Leave Link  716 at Tue Jan 20 11:10:48 2026, MaxMem=  4294967296 cpu:               0.3 elap:               0.0
 (Enter /root/g16/l103.exe)

 GradGradGradGradGradGradGradGradGradGradGradGradGradGradGradGradGradGrad
 Berny optimization.
 Red2BG is reusing G-inverse.
 Internal  Forces:  Max     0.013135910 RMS     0.003013800
 Search for a local minimum.
 Step number   1 out of a maximum of  156
 All quantities printed in internal units (Hartrees-Bohrs-Radians)
[...]
 84,-0.05983847,0.00426282,-0.05366593,-0.00041891,0.00071733,-0.000981
 42,-0.00020155,0.00060137,0.00111255,0.00005390,-0.00032332,0.00029509
 ,-0.00004843,-0.00002453,0.00010548,0.00001619,0.00005939,-0.00004429,
 0.00001088,-0.00002344,0.00001984,0.00001910,0.00002217,-0.00001646,0.
 00015128,0.00021326,0.00003950,-0.00001741,-0.00009266,-0.00001473,0.0
 0106513,0.00065715,-0.00051634,-0.00268160,-0.00244913,0.00233833,-0.0
 0422222,0.00059386,-0.02653959,0.06090529,-0.00014836,0.00006559,-0.00
 009973,0.00016145,-0.00021817,0.00002496,-0.00037379,0.00016140,-0.000
 12149,0.00140430,-0.00048415,-0.00007617,0.00193277,-0.00336348,0.0186
 9030,0.00460347,-0.04608058,0.01632692,-0.00469346,-0.00203182,-0.0304
 3200,-0.00074183,0.00170173,-0.00351472,-0.00041136,0.00047174,0.00133
 033,-0.00009531,-0.00039913,-0.00013480,0.00001869,0.00003684,0.000028
 32,0.00005736,0.00000925,-0.00000109,-0.00007389,0.00001712,0.00003886
 ,-0.00004490,-0.00000297,-0.00005890,0.00000305,-0.00002422,-0.0000196
 3,0.00052517,0.00065951,0.00017807,-0.00341374,-0.00127892,0.00202807,
 0.00190905,-0.00069385,0.01309261,-0.00069409,0.05616150,0.00016255,-0
 .00004314,0.00011728,-0.00017322,0.00020083,-0.00007605,0.00065162,-0.
 00027450,0.00029460,-0.00160003,0.00019007,0.00017661,-0.00132641,0.00
 183563,-0.01250366,-0.05100147,0.01518479,-0.29952742,-0.00113850,-0.0
 0203225,-0.01108501,-0.00146920,0.00178777,-0.00152070,0.00034916,-0.0
 0040731,0.00157423,0.00008420,0.00002963,0.00006221,0.00004950,-0.0000
 0040,-0.00008974,-0.00004924,-0.00000088,0.00001704,0.00010803,-0.0000
 1627,0.00000193,-0.00020187,-0.00004999,0.00013515,0.00001445,0.000007
 41,-0.00000084,0.00000625,-0.00006774,0.00112772,0.00210437,0.00137282
 ,-0.00003774,-0.00038318,0.00015132,-0.00192277,0.05422023,-0.01554240
 ,0.32216287,0.00013399,-0.00000388,0.00010037,-0.00016143,0.00004796,-
 0.00005211,0.00015506,-0.00000918,0.00011424,-0.00029534,-0.00013920,-
 0.00017131,0.00026132,0.00041868,-0.00070178,-0.00023445,-0.00112950,-
 0.00107726,-0.05650434,0.00024748,-0.02419197,0.00225491,-0.00427787,-
 0.02704054,-0.00421998,0.00618712,-0.00218057,0.00015659,0.00070310,0.
 00103422,0.00040866,-0.00000861,-0.00008314,0.00004124,0.00008134,-0.0
 0007509,0.00026837,-0.00011044,0.00016732,-0.00114840,-0.00015508,-0.0
 0048341,0.00001579,0.00001461,0.00001572,0.00007514,0.00009768,0.00012
 447,-0.00000325,-0.00005870,0.00001729,0.00006165,-0.00028179,0.000324
 01,0.00103110,0.00007053,-0.00035788,0.05465283,0.00005751,-0.00002279
 ,0.00004310,-0.00008127,0.00006337,-0.00002192,0.00012675,-0.00001047,
 -0.00006883,-0.00017132,-0.00019891,0.00007631,0.00003720,0.00214098,-
 0.00021991,-0.00455182,-0.00037957,-0.03270294,0.00110452,-0.04283021,
 0.01014362,-0.00211298,-0.00089509,0.01836911,0.00538105,-0.00330308,0
 .00149400,-0.00051117,-0.00014993,-0.00080709,-0.00011734,-0.00004227,
 0.00004151,-0.00006911,-0.00000023,-0.00007258,0.00012822,0.00000231,0
 .00003559,-0.00035448,0.00015049,-0.00003748,0.00000480,-0.00000027,0.
 00001904,0.00049643,0.00021767,0.00013167,0.00006863,-0.00046107,0.000
 74076,0.00024395,0.00116467,0.00063245,-0.00031278,-0.00576184,-0.0021
 8126,-0.00230697,0.05080278,-0.00007706,0.00003741,-0.00001456,0.00017
 121,-0.00010154,-0.00003596,-0.00009345,0.00011219,0.00001043,-0.00005
 097,-0.00038170,-0.00014122,0.00023592,0.00092189,0.00112367,-0.001377
 43,-0.00020588,-0.01095006,-0.02812472,0.00994935,-0.30729782,0.003325
 38,-0.00070116,-0.00579772,-0.00310774,0.00112340,-0.00051037,0.000330
 21,0.00014901,0.00016313,-0.00011239,0.00014551,0.00002255,0.00015667,
 0.00003889,-0.00004134,0.00015965,-0.00008450,0.00032105,0.00021659,0.
 00003661,-0.00056168,-0.00000134,-0.00000945,0.00002552,0.00016137,-0.
 00000770,0.00017394,-0.00053872,-0.00025456,0.00024463,0.00021832,-0.0
 0007720,0.00047182,0.00013735,-0.00226126,0.00036226,0.02990279,-0.008
 16761,0.33115605,-0.00010410,-0.00001607,-0.00012823,0.00011182,0.0000
 3389,0.00018811,-0.00002016,-0.00002872,-0.00004394,0.00021297,0.00033
 568,0.00009395,0.00126197,0.00028646,-0.00047122,-0.00010308,0.0005639
 4,-0.00039309,-0.21921223,-0.09827623,0.08571360,-0.02410962,-0.012436
 32,0.01297641,0.00483475,0.00012998,0.00060024,-0.00218604,0.00306759,
 -0.00228055,-0.00048592,0.00027636,0.00090069,-0.00009297,0.00019464,-
 0.00010887,-0.00003757,-0.00008703,0.00006138,0.00073365,0.00032156,-0
 .00061382,0.00001334,0.00000234,-0.00003578,0.00002701,-0.00002479,0.0
 0021106,-0.00008560,-0.00008969,0.00011986,0.00100302,0.00015611,-0.00
 029351,-0.00002362,-0.00011003,-0.00003467,0.00443850,0.00293005,-0.00
 201323,0.23440278,-0.00021383,0.00008303,-0.00007648,0.00037127,-0.000
 27807,-0.00008810,-0.00046580,0.00034658,-0.00003042,0.00115820,-0.000
 29112,-0.00011396,0.00020970,-0.00473659,-0.00381438,-0.02358486,-0.01
 555122,0.01256347,-0.09883806,-0.09536849,0.05124016,0.01785517,0.0062
 9965,-0.00642755,-0.00158817,0.00065428,-0.00190478,0.00187294,-0.0016
 6647,0.00112321,0.00052356,-0.00021912,-0.00050631,0.00008001,-0.00014
 076,0.00008681,-0.00008581,0.00013947,0.00005044,-0.00014483,-0.000203
 08,0.00005652,0.00000441,-0.00001009,0.00003166,-0.00124731,-0.0010850
 3,0.00066607,0.00026491,0.00032111,-0.00003484,0.00007010,0.00120582,0
 .00073044,0.00003193,0.00105866,-0.00016886,0.00061186,-0.00040392,-0.
 00021379,0.10286850,0.10977592,-0.00001317,0.00002261,0.00001080,0.000
 05094,-0.00007108,-0.00003298,-0.00009469,0.00008225,-0.00001150,0.000
 25024,-0.00020011,-0.00019747,-0.00016732,-0.00187282,-0.00021107,-0.0
 1060285,-0.00673744,0.00468738,0.08851463,0.05252637,-0.09403522,-0.00
 592004,-0.00510171,0.00250436,-0.00035915,0.00045218,0.00018655,0.0001
 6778,0.00094715,0.00068763,-0.00017584,0.00007249,-0.00002885,0.000068
 19,0.00005569,-0.00006056,0.00014568,-0.00002923,0.00022060,-0.0002895
 9,-0.00003367,-0.00046853,0.00001165,0.00000430,0.00001059,-0.00015726
 ,-0.00041085,0.00030223,-0.00007147,-0.00025844,0.00017350,0.00003049,
 0.00054688,0.00051051,-0.00027510,0.00046444,0.00057466,0.02384725,0.0
 1269236,-0.00930636,-0.09460219,-0.05308420,0.09403933,-0.00020432,-0.
 00022424,-0.00043967,-0.00013478,0.00081122,0.00068972,0.00029810,0.00
 012140,-0.00009424,0.00029137,-0.00043464,0.00045856,0.00003118,-0.000
 14920,-0.00009589,0.00075779,-0.00089203,0.00015239,-0.00142492,-0.001
 60959,-0.00148031,0.00942278,0.01585912,0.01696772,-0.00279678,-0.0033
 0626,0.00114881,-0.06113089,-0.03822620,-0.04571708,-0.00902474,-0.012
 96466,-0.01904882,-0.00206478,0.00102661,-0.00231077,0.00113856,0.0001
 1010,0.00085800,-0.00064928,-0.00252653,-0.00492164,-0.00001720,-0.000
 09104,0.00004604,0.00006882,-0.00001122,-0.00002941,0.00001733,-0.0000
 1118,-0.00001461,0.00000259,-0.00012161,-0.00006572,-0.00001125,0.0000
 9723,0.00000347,-0.00093010,0.00054613,0.00001136,-0.00024758,0.000019
 94,-0.00038501,0.06828124,-0.00086306,0.00031803,-0.00036338,0.0014679
 4,-0.00128771,0.00015417,-0.00086541,0.00001851,-0.00036277,-0.0019868
 3,-0.00287880,0.00366583,-0.00018293,0.00009578,-0.00023174,0.00004173
 ,-0.00010785,0.00010869,0.00006778,0.00017969,-0.00060338,0.00096408,0
 .00136261,0.00006066,-0.00060146,-0.00161909,0.00048598,-0.04388249,-0
 .13535931,-0.12356003,0.00591956,0.00638413,0.00883501,0.00016086,-0.0
 0089397,0.00081683,0.00095711,0.00238372,0.00015607,-0.00578918,-0.023
 86706,-0.01946686,0.00013327,0.00037670,-0.00045409,0.00013156,-0.0000
 3325,-0.00008204,0.00003212,0.00000746,0.00002097,0.00002606,0.0000682
 6,-0.00004536,0.00003835,0.00005380,0.00001620,0.00031588,-0.00017852,
 0.00018508,0.00006176,0.00000721,0.00011112,0.04248259,0.15241178,0.00
 025461,-0.00017810,0.00007600,-0.00033901,0.00073091,-0.00000515,0.000
 52653,-0.00005794,0.00064261,0.00109628,0.00142477,-0.00112793,-0.0000
 5470,-0.00017903,0.00002569,-0.00080038,0.00014705,0.00004778,0.001248
 25,0.00221695,0.00077991,-0.00589909,-0.01372595,-0.01935466,0.0034084
 7,0.00224900,0.00049287,-0.05295935,-0.12939630,-0.19428692,-0.0030795
 5,-0.00506503,-0.00633507,0.00000761,0.00088174,-0.00067005,-0.0011670
 4,-0.00091059,0.00021933,0.00358648,0.01272160,0.00973291,-0.00004282,
 -0.00018434,0.00020870,0.00000411,-0.00000067,0.00002834,-0.00000363,-
 0.00001414,-0.00003663,0.00000262,0.00012018,0.00011683,-0.00002385,0.
 00005728,0.00003382,0.00034318,-0.00021953,0.00037464,0.00018979,-0.00
 006959,0.00007723,0.05459649,0.12940201,0.20703491,-0.00025730,0.00050
 307,-0.00028830,0.00175134,-0.00037646,0.00064634,-0.00049937,0.000101
 79,-0.00011892,0.00028762,0.00003944,0.00007034,0.00000528,-0.00003067
 ,-0.00006161,0.00023580,0.00010777,0.00015563,0.00026432,-0.00051678,0
 .00004101,0.00004680,0.00091639,-0.00233343,0.00005760,-0.00037040,0.0
 0175873,0.00237894,0.00344633,-0.02622937,-0.04521741,-0.00247314,0.01
 900216,-0.00006973,0.00044606,0.01706094,-0.00089625,-0.00349407,0.001
 80253,-0.00303951,0.00046485,-0.00144104,0.00001382,-0.00008408,0.0000
 7479,-0.00002717,-0.00000945,0.00001511,-0.00000501,-0.00000122,-0.000
 00867,-0.00002440,-0.00012057,-0.00001445,-0.00002493,0.00004577,-0.00
 000721,0.00015596,-0.00013105,0.00012401,0.00001778,-0.00000689,-0.000
 01310,-0.00292792,0.00124095,-0.00117836,0.04867001,-0.00004441,0.0002
 8614,-0.00038890,0.00039789,-0.00034572,0.00159168,-0.00044213,-0.0002
 5821,-0.00008703,0.00030914,0.00032902,0.00024269,-0.00008571,-0.00009
 252,-0.00007603,-0.00006311,0.00005703,-0.00004864,0.00002252,0.000103
 80,0.00029880,0.00004440,0.00055408,0.00142871,-0.00061863,-0.00054587
 ,-0.00075558,-0.00041358,-0.00145635,0.00574924,-0.00230573,-0.0520939
 2,0.03294583,0.00184838,-0.00073763,0.01990508,0.00015779,-0.00608023,
 0.00443091,-0.00151398,-0.00083237,0.00137790,-0.00001631,0.00004305,-
 0.00001246,0.00002014,-0.00000398,-0.00001537,-0.00004436,0.00003907,-
 0.00000383,-0.00002195,0.00001322,0.00000848,0.00000645,-0.00000467,0.
 00000186,0.00002893,-0.00003264,-0.00002341,-0.00003293,0.00002099,-0.
 00003079,-0.00019578,-0.00007738,0.00017916,0.00217218,0.05639340,0.00
 049091,-0.00020852,0.00077611,-0.00085828,-0.00048685,-0.00082618,0.00
 024584,-0.00001812,0.00035611,-0.00015763,-0.00020284,-0.00031806,0.00
 003166,0.00001209,0.00004439,-0.00005771,-0.00004650,-0.00003611,-0.00
 000631,0.00007447,0.00000862,0.00219219,0.00149990,-0.00279418,0.00271
 932,-0.00162748,0.00121379,-0.00281115,0.00066051,-0.00723713,0.017065
 97,0.03672112,-0.31618065,-0.00030909,0.00038068,-0.00078038,-0.000256
 52,0.00030871,0.00053274,0.00033821,-0.00023765,-0.00076109,0.00000106
 ,0.00004620,-0.00000170,-0.00000442,0.00000877,0.00000935,0.00001455,-
 0.00002388,-0.00000063,0.00001936,0.00003730,0.00001246,0.00000556,0.0
 0000714,0.00001457,-0.00002622,0.00001421,0.00004448,-0.00002030,-0.00
 003086,0.00006058,-0.00085199,0.00091665,-0.00045551,-0.01836217,-0.04
 084474,0.33726427,-0.00037849,-0.00011964,-0.00155629,-0.00200049,-0.0
 0110495,0.00406329,0.00111702,-0.00009120,-0.00033038,-0.00028693,-0.0
 0068840,-0.00084456,0.00006417,-0.00008228,0.00008039,-0.00004597,-0.0
 0028734,-0.00003309,-0.00084361,-0.00042852,0.00070127,-0.00170446,0.0
 0213852,-0.00270044,0.00012471,-0.00016329,0.00040221,-0.01093455,0.02
 253929,0.01031069,-0.07222474,0.07970990,0.04187354,0.00314787,-0.0228
 4872,-0.01090237,0.00138712,0.00113163,0.00069787,-0.00360576,0.000096
 02,-0.00011441,0.00021101,-0.00005660,-0.00006866,0.00001956,0.0000080
 7,0.00000980,0.00005084,-0.00004798,0.00003486,0.00003888,0.00008178,-
 0.00000862,-0.00000316,0.00000323,0.00001480,0.00007227,-0.00001665,-0
 .00002375,-0.00031774,0.00019686,0.00000003,0.00112732,-0.00023827,0.0
 0056251,-0.00052408,0.00140335,0.00048200,0.08428837,-0.00039584,-0.00
 036498,-0.00171632,-0.00249919,-0.00000868,0.00426512,0.00061166,0.000
 21337,-0.00032709,-0.00019201,0.00021510,0.00006893,0.00003451,-0.0000
 6309,0.00012138,-0.00004628,-0.00004148,0.00006077,0.00006627,0.000041
 66,-0.00019168,-0.00034683,-0.00036288,0.00089945,0.00007412,0.0000031
 5,-0.00031727,0.00061264,-0.00223836,-0.00207943,0.08030739,-0.2397739
 5,-0.10069808,0.00481341,-0.02127952,-0.01175557,0.00069074,0.00132613
 ,0.00120161,0.00024858,-0.00049546,0.00030949,0.00012167,-0.00006243,-
 0.00007371,0.00002203,-0.00002985,-0.00000549,0.00005708,-0.00003309,-
 0.00001422,0.00002307,-0.00000360,-0.00000879,-0.00000282,0.00001377,-
 0.00001598,-0.00002591,-0.00000431,-0.00000657,0.00001512,-0.00002036,
 -0.00000879,-0.00045084,0.00106515,0.00019599,-0.00204424,0.00553903,0
 .00234301,-0.08198272,0.25498634,0.00037751,-0.00024580,0.00060558,-0.
 00015415,0.00117669,-0.00081120,0.00020840,-0.00039249,0.00043766,-0.0
 0017326,-0.00030340,-0.00070252,-0.00002142,-0.00000688,-0.00005466,0.
 00007257,-0.00006457,0.00002535,-0.00029649,-0.00031208,0.00011532,-0.
 00051856,0.00120161,-0.00147225,0.00070950,-0.00004121,0.00085085,-0.0
 0667288,0.01187971,0.00452618,0.04257263,-0.10364243,-0.09966894,-0.00
 276840,0.00838599,0.00360476,0.00087140,-0.00089405,0.00023327,-0.0018
 0148,0.00116876,-0.00043159,0.00002304,0.00003995,-0.00003000,0.000010
 35,-0.00000077,0.00000479,-0.00000748,-0.00000721,0.00002382,0.0000146
 7,-0.00001076,-0.00001245,-0.00001418,0.00000270,0.00001993,0.00001701
 ,-0.00000046,0.00000092,-0.00008637,0.00003176,0.00001754,-0.00018730,
 0.00064222,0.00113842,0.00968838,-0.02614752,-0.01082811,-0.04164929,0
 .10748882,0.10213677,0.00180175,-0.00044408,0.00074730,-0.00036630,-0.
 00096648,-0.00185227,0.00041672,-0.00029054,-0.00012012,-0.00005601,-0
 .00018634,-0.00008737,-0.00004159,-0.00004654,0.00020462,-0.00004502,0
 .00004063,-0.00008004,-0.00010762,0.00003975,0.00012909,0.00018817,-0.
 00010633,-0.00065179,-0.00025613,-0.00002778,0.00030559,-0.00077302,-0
 .00078458,0.00070351,-0.00977671,0.00346876,0.00326405,-0.29015106,0.0
 7236662,0.05814816,-0.01215746,0.00353781,-0.00285777,0.00166183,0.001
 07956,-0.00191546,0.00006218,-0.00003718,0.00006349,-0.00003072,0.0000
 4610,0.00003190,0.00001330,-0.00001675,-0.00000501,-0.00003487,0.00001
 751,0.00002544,0.00000784,-0.00000780,0.00001336,0.00003098,0.00000031
 ,0.00002399,-0.00005096,0.00002402,0.00001876,-0.00021693,0.00001558,-
 0.00009668,-0.00080794,-0.00064146,0.00002792,0.00097963,0.00033414,-0
 .00033480,0.31024912,-0.00202180,0.00167693,0.00319026,0.02343229,-0.0
 0733424,-0.00728312,-0.00101398,-0.00236574,-0.00278507,-0.00032156,0.
 00043334,-0.00026603,0.00002720,0.00005426,-0.00000833,-0.00009589,-0.
 00009816,0.00002497,-0.00017508,0.00006514,0.00027085,-0.00031006,0.00
 020217,-0.00081523,-0.00020592,-0.00002251,0.00008839,-0.00284807,-0.0
 0239183,0.00153065,-0.02213569,0.00677666,0.00373743,0.06992128,-0.065
 85684,-0.01751401,0.01396044,-0.00368353,0.00082434,-0.00118528,-0.001
 42315,0.00222806,0.00058927,-0.00084373,0.00027416,0.00000218,-0.00000
 809,-0.00002452,0.00002309,0.00000397,0.00002652,0.00003296,0.00006414
 ,0.00000083,0.00000320,0.00000530,-0.00000169,0.00000686,-0.00001517,0
 .00000565,-0.00008549,0.00006448,-0.00000014,-0.00042460,0.00008910,-0
 .00018283,-0.00048152,-0.00051367,0.00039792,0.00035292,0.00162665,-0.
 00017108,-0.07761569,0.07333712,-0.00151556,0.00172041,0.00213257,0.02
 273414,-0.00645478,-0.00263394,-0.00088914,-0.00306154,-0.00261987,-0.
 00097303,-0.00003628,-0.00049352,0.00015058,0.00030018,0.00011881,0.00
 007266,-0.00010345,0.00001972,-0.00000307,-0.00001789,-0.00012391,0.00
 015123,-0.00023998,0.00016347,0.00000505,0.00003108,0.00007476,0.00001
 782,0.00142745,-0.00086112,0.00641920,-0.00312927,0.00115729,0.0672404
 9,-0.01966685,-0.06465554,-0.03453196,0.00998407,0.00355179,-0.0015815
 3,0.00289640,-0.00487225,0.00076839,-0.00079152,0.00030962,-0.00007015
 ,0.00005176,0.00005526,0.00007699,-0.00005275,0.00003844,0.00002825,0.
 00000414,-0.00002162,-0.00001207,0.00000170,0.00000514,0.00000961,0.00
 000766,0.00004034,0.00002749,-0.00000766,0.00003027,0.00024350,0.00003
 832,0.00004494,-0.00019527,0.00020257,-0.00005186,-0.00082842,0.000126
 69,0.00040319,-0.05588725,0.01670723,0.06777097,-0.00012526,-0.0006150
 7,-0.00059784,-0.00040978,0.00122621,0.00071561,0.00086743,0.00126720,
 0.00074536,0.00361585,-0.00135635,0.00180757,0.00024050,0.00005896,0.0
 0130503,0.00005448,0.00009797,0.00012258,-0.00039169,-0.00018017,0.000
 06991,0.00029387,-0.00019613,-0.00005085,-0.00013918,0.00016734,-0.000
 08138,0.00672167,-0.00201801,0.00685356,-0.00102464,-0.00168175,0.0009
 7807,-0.00485663,-0.00187096,0.00313160,-0.02739762,0.01090017,-0.0270
 8203,-0.11377477,0.02502156,-0.10984084,0.00039065,0.00009111,-0.00000
 402,-0.00011080,-0.00008530,0.00003709,0.00006715,0.00038596,0.0000541
 9,0.00000578,0.00001662,0.00000126,-0.00005583,-0.00002353,-0.00003911
 ,-0.00071707,-0.00038860,0.00034600,0.00001962,0.00001216,0.00002114,0
 .00034438,0.00035243,-0.00018248,0.00043576,0.00002889,0.00008725,0.00
 024119,-0.00004574,0.00012062,-0.00053914,0.00056894,-0.00145794,0.136
 24407,-0.00028246,0.00021917,0.00018085,0.00115669,-0.00013860,-0.0002
 4171,0.00145544,-0.00288795,-0.00191619,-0.01131394,0.00366023,-0.0223
 1862,-0.00103063,0.00104895,-0.00041436,-0.00005754,-0.00006488,0.0000
 4425,0.00005623,0.00024413,0.00033200,0.00141396,-0.00135775,-0.000333
 66,-0.00074090,0.00013454,0.00094580,0.01207793,-0.00520790,0.02008223
 ,-0.00015212,-0.00263500,0.00199610,0.00022651,-0.00050211,0.00076931,
 0.00094266,0.00019079,0.00091029,0.02716858,-0.05623553,0.04320543,-0.
 00123942,-0.00073837,-0.00002865,-0.00010162,0.00001989,0.00028594,0.0
 0059042,-0.00029582,0.00031667,0.00003926,0.00003408,-0.00001088,-0.00
 001059,-0.00007239,0.00002434,-0.00032487,0.00014803,-0.00020866,-0.00
 005668,-0.00000285,-0.00013855,0.00056529,0.00148101,-0.00014257,0.000
 65592,-0.00030367,0.00029877,0.00049498,-0.00024832,0.00022251,0.00020
 079,0.00015740,0.00006231,-0.03173391,0.06335295,-0.00064570,0.0002940
 0,-0.00030300,0.00168071,-0.00048567,0.00020548,0.00138717,-0.00227113
 ,-0.00176846,-0.01077943,0.00330186,-0.01729728,-0.00114296,0.00102522
 ,0.00041825,0.00025117,-0.00006765,0.00007296,-0.00036143,-0.00032375,
 -0.00045255,-0.00082994,0.00096089,0.00027550,0.00033343,-0.00022244,-
 0.00031269,-0.00433148,0.00090283,-0.00549691,0.00079304,0.00070090,-0
 .00000872,0.00271224,-0.00053743,0.00065679,0.00647598,-0.00234512,0.0
 1272096,-0.11888175,0.04473039,-0.24779027,-0.00103451,-0.00062552,0.0
 0002073,0.00002010,-0.00007727,0.00043848,0.00075957,-0.00061691,0.000
 50577,0.00001946,0.00003207,-0.00001187,-0.00011909,-0.00000952,0.0000
 8390,0.00042381,0.00005821,0.00012166,0.00004321,-0.00000875,0.0002587
 9,0.00046641,-0.00044616,0.00119700,-0.00018806,0.00007137,-0.00006587
 ,-0.00017298,0.00013772,-0.00013263,0.00018139,-0.00025520,0.00041705,
 0.12293965,-0.04392295,0.25624691\\-0.00000074,-0.00000144,0.00000184,
 -0.00000103,-0.00000016,0.00000170,0.00000043,-0.00000118,0.00000151,0
 .00000171,0.00000144,-0.00000236,0.00000037,0.00000108,0.00000553,-0.0
 0000413,0.00000053,-0.00000124,0.00000048,-0.00000124,0.00000099,-0.00
 000151,-0.00000169,-0.00000363,0.00000023,-0.00000245,-0.00000345,0.00
 000154,-0.00000067,-0.00000024,0.00000008,-0.00000132,-0.00000193,0.00
 000046,0.00000095,0.00000134,0.00000089,0.00000230,0.00000125,0.000000
 17,0.00000300,-0.00000104,-0.00000088,-0.00000233,0.00000300,-0.000000
 46,-0.00000084,0.00000325,-0.00000031,0.00000105,0.00000259,-0.0000002
 9,-0.00000142,0.00000057,-0.00000058,-0.00000239,-0.00000018,0.0000009
 0,0.00000074,-0.00000081,0.,-0.00000134,-0.00000252,0.00000098,0.00000
 184,-0.00000225,-0.00000007,0.00000012,-0.00000188,0.00000061,0.000001
 17,-0.00000284,0.00000026,0.00000160,0.00000015,0.00000088,0.00000264,
 0.00000064\\\@


 THERE IS MUCH PLEASURE TO BE GAINED FROM USELESS KNOWLEDGE

                                       -- BERTRAND RUSSELL
 Job cpu time:       0 days  0 hours 28 minutes 22.5 seconds.
 Elapsed time:       0 days  0 hours  1 minutes 46.9 seconds.
 File lengths (MBytes):  RWF=    259 Int=      0 D2E=      0 Chk=     19 Scr=      1
 Normal termination of Gaussian 16 at Tue Jan 20 11:14:04 2026.
