 Entering Gaussian System, Link 0=g16
 Initial command:
 /root/g16/l1.exe "/tmp/gaussian_scratch_3336331/Gau-3336336.inp" -scrdir="/tmp/gaussian_scratch_3336331/"
 Entering Link 1 = /root/g16/l1.exe PID=   3336338.
  
 Copyright (c) 1988,1990,1992,1993,1995,1998,2003,2009,2016,
            Gaussian, Inc.  All Rights Reserved.
  
 This is part of the Gaussian(R) 16 program.  It is based on
 the Gaussian(R) 09 system (copyright 2009, Gaussian, Inc.),
 the Gaussian(R) 03 system (copyright 2003, Gaussian, Inc.),
 the Gaussian(R) 98 system (copyright 1998, Gaussian, Inc.),
 the Gaussian(R) 94 system (copyright 1995, Gaussian, Inc.),
 the Gaussian 92(TM) system (copyright 1992, Gaussian, Inc.),
 the Gaussian 90(TM) system (copyright 1990, Gaussian, Inc.),
 the Gaussian 88(TM) system (copyright 1988, Gaussian, Inc.),
 the Gaussian 86(TM) system (copyright 1986, Carnegie Mellon
 University), and the Gaussian 82(TM) system (copyright 1983,
 Carnegie Mellon University). Gaussian is a federally registered
 trademark of Gaussian, Inc.
  
 This software contains proprietary and confidential information,
 including trade secrets, belonging to Gaussian, Inc.
  
 This software is provided under written license and may be
 used, copied, transmitted, or stored only in accord with that
 written license.
  
 The following legend is applicable only to US Government
 contracts under FAR:
  
                    RESTRICTED RIGHTS LEGEND
  
 Use, reproduction and disclosure by the US Government is
 subject to restrictions as set forth in subparagraphs (a)
 and (c) of the Commercial Computer Software - Restricted
 Rights clause in FAR 52.227-19.
  
 Gaussian, Inc.
 340 Quinnipiac St., Bldg. 40, Wallingford CT 06492
  
  
 ---------------------------------------------------------------
 Warning -- This program may not be used in any manner that
 competes with the business of Gaussian, Inc. or will provide
 assistance to any competitor of Gaussian, Inc.  The licensee
 of this program is prohibited from giving any competitor of
 Gaussian, Inc. access to this program.  By using this program,
 the user acknowledges that Gaussian, Inc. is engaged in the
 business of creating and licensing software in the field of
 computational chemistry and represents and warrants to the
 licensee that it is not a competitor of Gaussian, Inc. and that
 it will not use this program in any manner prohibited above.
 ---------------------------------------------------------------
  

 Cite this work as:
 Gaussian 16, Revision A.03,
 M. J. Frisch, G. W. Trucks, H. B. Schlegel, G. E. Scuseria, 
 M. A. Robb, J. R. Cheeseman, G. Scalmani, V. Barone, 
 G. A. Petersson, H. Nakatsuji, X. Li, M. Caricato, A. V. Marenich, 
 J. Bloino, B. G. Janesko, R. Gomperts, B. Mennucci, H. P. Hratchian, 
 J. V. Ortiz, A. F. Izmaylov, J. L. Sonnenberg, D. Williams-Young, 
 F. Ding, F. Lipparini, F. Egidi, J. Goings, B. Peng, A. Petrone, 
 T. Henderson, D. Ranasinghe, V. G. Zakrzewski, J. Gao, N. Rega, 
 G. Zheng, W. Liang, M. Hada, M. Ehara, K. Toyota, R. Fukuda, 
 J. Hasegawa, M. Ishida, T. Nakajima, Y. Honda, O. Kitao, H. Nakai, 
 T. Vreven, K. Throssell, J. A. Montgomery, Jr., J. E. Peralta, 
 F. Ogliaro, M. J. Bearpark, J. J. Heyd, E. N. Brothers, K. N. Kudin, 
 V. N. Staroverov, T. A. Keith, R. Kobayashi, J. Normand, 
 K. Raghavachari, A. P. Rendell, J. C. Burant, S. S. Iyengar, 
 J. Tomasi, M. Cossi, J. M. Millam, M. Klene, C. Adamo, R. Cammi, 
 J. W. Ochterski, R. L. Martin, K. Morokuma, O. Farkas, 
 J. B. Foresman, and D. J. Fox, Gaussian, Inc., Wallingford CT, 2016.
 
 ******************************************
 Gaussian 16:  ES64L-G16RevA.03 25-Dec-2016
                20-Jan-2026 
 ******************************************
 %chk=conf_001.chk
 %mem=32GB
 %nprocshared=16
 Will use up to   16 processors via shared memory.
 --------------------------------------------------------------------
 #p B3LYP/def2SVP em=GD3BJ SCRF=(PCM,Solvent=Acetone) Opt=CalcFC Freq
 --------------------------------------------------------------------
 1/10=4,18=20,19=15,26=3,38=1/1,3;
 2/9=110,12=2,17=6,18=5,40=1/2;
 3/5=43,7=101,11=2,25=1,30=1,70=2201,71=2,72=19,74=-5,124=41,140=1/1,2,3;
 4//1;
 5/5=2,38=5,53=19/2;
 8/6=4,10=90,11=11/1;
 11/6=1,8=1,9=11,15=111,16=1/1,2,10;
 10/6=1,13=1/2;
 6/7=2,8=2,9=2,10=2,28=1/1;
 7/10=1,18=20,25=1/1,2,3,16;
 1/10=4,18=20,19=15,26=3/3(2);
 2/9=110/2;
 99//99;
 2/9=110/2;
 3/5=43,7=101,11=2,25=1,30=1,70=2205,71=1,72=19,74=-5,124=41/1,2,3;
 4/5=5,16=3,69=1/1;
 5/5=2,38=5,53=19/2;
 7//1,2,3,16;
 1/18=20,19=15,26=3/3(-5);
 2/9=110/2;
 6/7=2,8=2,9=2,10=2,19=2,28=1/1;
 99/9=1/99;
 Leave Link    1 at Tue Jan 20 11:16:12 2026, MaxMem=  4294967296 cpu:               0.5 elap:               0.0
 (Enter /root/g16/l101.exe)
 ----------------
 product_conf_001
 ----------------
 Symbolic Z-matrix:
 Charge =  0 Multiplicity = 1
 O                     2.76766   0.38002   1.52701 
 C                     1.90878   0.43381   0.66717 
 C                     0.72802   1.2906    0.7492 
 C                    -0.23374   1.21151  -0.18237 
 C                    -1.56201   1.88594  -0.1229 
 C                    -2.67153   0.90548  -0.52404 
 C                    -2.63491  -0.3651    0.32604 
 C                    -1.29744  -1.05559   0.48801 
 O                    -1.00835  -1.57489   1.54105 
 C                    -0.36798  -1.15476  -0.72259 
 C                     1.0181   -1.69029  -0.33446 
 C                     1.9377   -0.46727  -0.56704 
 O                     1.34531   0.18727  -1.66834 
 C                    -0.01464   0.2485   -1.31837 
 H                     0.64832   1.93784   1.61051 
 H                    -1.73593   2.27143   0.88277 
 H                    -1.56608   2.73264  -0.81513 
 H                    -2.58826   0.65309  -1.58065 
 H                    -3.63947   1.38745  -0.38074 
 H                    -3.31399  -1.10761  -0.10434 
 H                    -2.99278  -0.15197   1.33627 
 H                    -0.85134  -1.78272  -1.47405 
 H                     1.04154  -2.02758   0.70094 
 H                     1.32592  -2.50474  -0.98731 
 H                     2.96388  -0.73742  -0.81938 
 H                    -0.56426   0.5137   -2.21997 
 
 ITRead=  0  0  0  0  0  0  0  0  0  0  0  0  0  0  0  0  0  0  0  0
 ITRead=  0  0  0  0  0  0
 MicOpt= -1 -1 -1 -1 -1 -1 -1 -1 -1 -1 -1 -1 -1 -1 -1 -1 -1 -1 -1 -1
 MicOpt= -1 -1 -1 -1 -1 -1
 NAtoms=     26 NQM=       26 NQMF=       0 NMMI=      0 NMMIF=      0
                NMic=       0 NMicF=      0.
                    Isotopes and Nuclear Properties:
 (Nuclear quadrupole moments (NQMom) in fm**2, nuclear magnetic moments (NMagM)
  in nuclear magnetons)

  Atom         1           2           3           4           5           6           7           8           9          10
 IAtWgt=          16          12          12          12          12          12          12          12          16          12
 AtmWgt=  15.9949146  12.0000000  12.0000000  12.0000000  12.0000000  12.0000000  12.0000000  12.0000000  15.9949146  12.0000000
 NucSpn=           0           0           0           0           0           0           0           0           0           0
 AtZEff=  -0.0000000  -0.0000000  -0.0000000  -0.0000000  -0.0000000  -0.0000000  -0.0000000  -0.0000000  -0.0000000  -0.0000000
 NQMom=    0.0000000   0.0000000   0.0000000   0.0000000   0.0000000   0.0000000   0.0000000   0.0000000   0.0000000   0.0000000
 NMagM=    0.0000000   0.0000000   0.0000000   0.0000000   0.0000000   0.0000000   0.0000000   0.0000000   0.0000000   0.0000000
 AtZNuc=   8.0000000   6.0000000   6.0000000   6.0000000   6.0000000   6.0000000   6.0000000   6.0000000   8.0000000   6.0000000

  Atom        11          12          13          14          15          16          17          18          19          20
 IAtWgt=          12          12          16          12           1           1           1           1           1           1
 AtmWgt=  12.0000000  12.0000000  15.9949146  12.0000000   1.0078250   1.0078250   1.0078250   1.0078250   1.0078250   1.0078250
 NucSpn=           0           0           0           0           1           1           1           1           1           1
 AtZEff=  -0.0000000  -0.0000000  -0.0000000  -0.0000000  -0.0000000  -0.0000000  -0.0000000  -0.0000000  -0.0000000  -0.0000000
 NQMom=    0.0000000   0.0000000   0.0000000   0.0000000   0.0000000   0.0000000   0.0000000   0.0000000   0.0000000   0.0000000
 NMagM=    0.0000000   0.0000000   0.0000000   0.0000000   2.7928460   2.7928460   2.7928460   2.7928460   2.7928460   2.7928460
 AtZNuc=   6.0000000   6.0000000   8.0000000   6.0000000   1.0000000   1.0000000   1.0000000   1.0000000   1.0000000   1.0000000

  Atom        21          22          23          24          25          26
 IAtWgt=           1           1           1           1           1           1
 AtmWgt=   1.0078250   1.0078250   1.0078250   1.0078250   1.0078250   1.0078250
 NucSpn=           1           1           1           1           1           1
 AtZEff=  -0.0000000  -0.0000000  -0.0000000  -0.0000000  -0.0000000  -0.0000000
 NQMom=    0.0000000   0.0000000   0.0000000   0.0000000   0.0000000   0.0000000
 NMagM=    2.7928460   2.7928460   2.7928460   2.7928460   2.7928460   2.7928460
 AtZNuc=   1.0000000   1.0000000   1.0000000   1.0000000   1.0000000   1.0000000
 Leave Link  101 at Tue Jan 20 11:16:13 2026, MaxMem=  4294967296 cpu:               6.1 elap:               0.4
 (Enter /root/g16/l103.exe)

 GradGradGradGradGradGradGradGradGradGradGradGradGradGradGradGradGradGrad
 Berny optimization.
 Initialization pass.
                           ----------------------------
                           !    Initial Parameters    !
                           ! (Angstroms and Degrees)  !
 --------------------------                            --------------------------
 ! Name  Definition              Value          Derivative Info.                !
 --------------------------------------------------------------------------------
 ! R1    R(1,2)                  1.2165         calculate D2E/DX2 analytically  !
 ! R2    R(2,3)                  1.4612         calculate D2E/DX2 analytically  !
 ! R3    R(2,12)                 1.5284         calculate D2E/DX2 analytically  !
 ! R4    R(3,4)                  1.3413         calculate D2E/DX2 analytically  !
 ! R5    R(3,15)                 1.0803         calculate D2E/DX2 analytically  !
 ! R6    R(4,5)                  1.4909         calculate D2E/DX2 analytically  !
 ! R7    R(4,14)                 1.5053         calculate D2E/DX2 analytically  !
 ! R8    R(5,6)                  1.534          calculate D2E/DX2 analytically  !
 ! R9    R(5,16)                 1.091          calculate D2E/DX2 analytically  !
 ! R10   R(5,17)                 1.0937         calculate D2E/DX2 analytically  !
 ! R11   R(6,7)                  1.5292         calculate D2E/DX2 analytically  !
 ! R12   R(6,18)                 1.0895         calculate D2E/DX2 analytically  !
 ! R13   R(6,19)                 1.0907         calculate D2E/DX2 analytically  !
 ! R14   R(7,8)                  1.5139         calculate D2E/DX2 analytically  !
 ! R15   R(7,20)                 1.0944         calculate D2E/DX2 analytically  !
 ! R16   R(7,21)                 1.0927         calculate D2E/DX2 analytically  !
 ! R17   R(8,9)                  1.2092         calculate D2E/DX2 analytically  !
 ! R18   R(8,10)                 1.5295         calculate D2E/DX2 analytically  !
 ! R19   R(10,11)                1.5358         calculate D2E/DX2 analytically  !
 ! R20   R(10,14)                1.5649         calculate D2E/DX2 analytically  !
 ! R21   R(10,22)                1.0921         calculate D2E/DX2 analytically  !
 ! R22   R(11,12)                1.5477         calculate D2E/DX2 analytically  !
 ! R23   R(11,23)                1.0892         calculate D2E/DX2 analytically  !
 ! R24   R(11,24)                1.0883         calculate D2E/DX2 analytically  !
 ! R25   R(12,13)                1.4115         calculate D2E/DX2 analytically  !
 ! R26   R(12,25)                1.0907         calculate D2E/DX2 analytically  !
 ! R27   R(13,14)                1.4056         calculate D2E/DX2 analytically  !
 ! R28   R(14,26)                1.0887         calculate D2E/DX2 analytically  !
 ! A1    A(1,2,3)              123.8332         calculate D2E/DX2 analytically  !
 ! A2    A(1,2,12)             122.0952         calculate D2E/DX2 analytically  !
 ! A3    A(3,2,12)             113.974          calculate D2E/DX2 analytically  !
 ! A4    A(2,3,4)              120.3892         calculate D2E/DX2 analytically  !
 ! A5    A(2,3,15)             117.1082         calculate D2E/DX2 analytically  !
 ! A6    A(4,3,15)             122.4222         calculate D2E/DX2 analytically  !
 ! A7    A(3,4,5)              125.7649         calculate D2E/DX2 analytically  !
 ! A8    A(3,4,14)             117.2258         calculate D2E/DX2 analytically  !
 ! A9    A(5,4,14)             116.6917         calculate D2E/DX2 analytically  !
 ! A10   A(4,5,6)              110.1713         calculate D2E/DX2 analytically  !
 ! A11   A(4,5,16)             109.7941         calculate D2E/DX2 analytically  !
 ! A12   A(4,5,17)             109.1649         calculate D2E/DX2 analytically  !
 ! A13   A(6,5,16)             110.5837         calculate D2E/DX2 analytically  !
 ! A14   A(6,5,17)             109.0635         calculate D2E/DX2 analytically  !
 ! A15   A(16,5,17)            108.0179         calculate D2E/DX2 analytically  !
 ! A16   A(5,6,7)              111.6153         calculate D2E/DX2 analytically  !
 ! A17   A(5,6,18)             110.2653         calculate D2E/DX2 analytically  !
 ! A18   A(5,6,19)             108.9696         calculate D2E/DX2 analytically  !
 ! A19   A(7,6,18)             110.1699         calculate D2E/DX2 analytically  !
 ! A20   A(7,6,19)             108.3831         calculate D2E/DX2 analytically  !
 ! A21   A(18,6,19)            107.3132         calculate D2E/DX2 analytically  !
 ! A22   A(6,7,8)              117.3619         calculate D2E/DX2 analytically  !
 ! A23   A(6,7,20)             109.2844         calculate D2E/DX2 analytically  !
 ! A24   A(6,7,21)             110.1225         calculate D2E/DX2 analytically  !
 ! A25   A(8,7,20)             106.3093         calculate D2E/DX2 analytically  !
 ! A26   A(8,7,21)             106.2239         calculate D2E/DX2 analytically  !
 ! A27   A(20,7,21)            107.019          calculate D2E/DX2 analytically  !
 ! A28   A(7,8,9)              120.0176         calculate D2E/DX2 analytically  !
 ! A29   A(7,8,10)             118.8015         calculate D2E/DX2 analytically  !
 ! A30   A(9,8,10)             121.0759         calculate D2E/DX2 analytically  !
 ! A31   A(8,10,11)            111.7794         calculate D2E/DX2 analytically  !
 ! A32   A(8,10,14)            112.3592         calculate D2E/DX2 analytically  !
 ! A33   A(8,10,22)            108.237          calculate D2E/DX2 analytically  !
 ! A34   A(11,10,14)           101.8359         calculate D2E/DX2 analytically  !
 ! A35   A(11,10,22)           111.8915         calculate D2E/DX2 analytically  !
 ! A36   A(14,10,22)           110.7067         calculate D2E/DX2 analytically  !
 ! A37   A(10,11,12)           102.8688         calculate D2E/DX2 analytically  !
 ! A38   A(10,11,23)           111.5698         calculate D2E/DX2 analytically  !
 ! A39   A(10,11,24)           111.3852         calculate D2E/DX2 analytically  !
 ! A40   A(12,11,23)           112.0094         calculate D2E/DX2 analytically  !
 ! A41   A(12,11,24)           109.4618         calculate D2E/DX2 analytically  !
 ! A42   A(23,11,24)           109.4164         calculate D2E/DX2 analytically  !
 ! A43   A(2,12,11)            109.4677         calculate D2E/DX2 analytically  !
 ! A44   A(2,12,13)            110.4096         calculate D2E/DX2 analytically  !
 ! A45   A(2,12,25)            110.5263         calculate D2E/DX2 analytically  !
 ! A46   A(11,12,13)           103.5519         calculate D2E/DX2 analytically  !
 ! A47   A(11,12,25)           113.4554         calculate D2E/DX2 analytically  !
 ! A48   A(13,12,25)           109.2203         calculate D2E/DX2 analytically  !
 ! A49   A(12,13,14)           103.4146         calculate D2E/DX2 analytically  !
 ! A50   A(4,14,10)            104.6839         calculate D2E/DX2 analytically  !
 ! A51   A(4,14,13)            110.8916         calculate D2E/DX2 analytically  !
 ! A52   A(4,14,26)            113.3068         calculate D2E/DX2 analytically  !
 ! A53   A(10,14,13)           105.9136         calculate D2E/DX2 analytically  !
 ! A54   A(10,14,26)           114.8167         calculate D2E/DX2 analytically  !
 ! A55   A(13,14,26)           107.0295         calculate D2E/DX2 analytically  !
 ! D1    D(1,2,3,4)           -174.2119         calculate D2E/DX2 analytically  !
 ! D2    D(1,2,3,15)             2.6056         calculate D2E/DX2 analytically  !
 ! D3    D(12,2,3,4)             2.2554         calculate D2E/DX2 analytically  !
 ! D4    D(12,2,3,15)          179.0729         calculate D2E/DX2 analytically  !
 ! D5    D(1,2,12,11)           97.2827         calculate D2E/DX2 analytically  !
 ! D6    D(1,2,12,13)         -149.3446         calculate D2E/DX2 analytically  !
 ! D7    D(1,2,12,25)          -28.3889         calculate D2E/DX2 analytically  !
 ! D8    D(3,2,12,11)          -79.2535         calculate D2E/DX2 analytically  !
 ! D9    D(3,2,12,13)           34.1192         calculate D2E/DX2 analytically  !
 ! D10   D(3,2,12,25)          155.0749         calculate D2E/DX2 analytically  !
 ! D11   D(2,3,4,5)            171.2521         calculate D2E/DX2 analytically  !
 ! D12   D(2,3,4,14)            -2.0358         calculate D2E/DX2 analytically  !
 ! D13   D(15,3,4,5)            -5.3916         calculate D2E/DX2 analytically  !
 ! D14   D(15,3,4,14)         -178.6795         calculate D2E/DX2 analytically  !
 ! D15   D(3,4,5,6)           -134.7671         calculate D2E/DX2 analytically  !
 ! D16   D(3,4,5,16)           -12.7426         calculate D2E/DX2 analytically  !
 ! D17   D(3,4,5,17)           105.4938         calculate D2E/DX2 analytically  !
 ! D18   D(14,4,5,6)            38.5526         calculate D2E/DX2 analytically  !
 ! D19   D(14,4,5,16)          160.5772         calculate D2E/DX2 analytically  !
 ! D20   D(14,4,5,17)          -81.1864         calculate D2E/DX2 analytically  !
 ! D21   D(3,4,14,10)           78.8993         calculate D2E/DX2 analytically  !
 ! D22   D(3,4,14,13)          -34.8923         calculate D2E/DX2 analytically  !
 ! D23   D(3,4,14,26)         -155.2743         calculate D2E/DX2 analytically  !
 ! D24   D(5,4,14,10)          -95.0071         calculate D2E/DX2 analytically  !
 ! D25   D(5,4,14,13)          151.2012         calculate D2E/DX2 analytically  !
 ! D26   D(5,4,14,26)           30.8192         calculate D2E/DX2 analytically  !
 ! D27   D(4,5,6,7)             54.8773         calculate D2E/DX2 analytically  !
 ! D28   D(4,5,6,18)           -67.9195         calculate D2E/DX2 analytically  !
 ! D29   D(4,5,6,19)           174.5407         calculate D2E/DX2 analytically  !
 ! D30   D(16,5,6,7)           -66.6788         calculate D2E/DX2 analytically  !
 ! D31   D(16,5,6,18)          170.5244         calculate D2E/DX2 analytically  !
 ! D32   D(16,5,6,19)           52.9847         calculate D2E/DX2 analytically  !
 ! D33   D(17,5,6,7)           174.6777         calculate D2E/DX2 analytically  !
 ! D34   D(17,5,6,18)           51.881          calculate D2E/DX2 analytically  !
 ! D35   D(17,5,6,19)          -65.6588         calculate D2E/DX2 analytically  !
 ! D36   D(5,6,7,8)            -48.7169         calculate D2E/DX2 analytically  !
 ! D37   D(5,6,7,20)          -169.7855         calculate D2E/DX2 analytically  !
 ! D38   D(5,6,7,21)            72.9278         calculate D2E/DX2 analytically  !
 ! D39   D(18,6,7,8)            74.1343         calculate D2E/DX2 analytically  !
 ! D40   D(18,6,7,20)          -46.9343         calculate D2E/DX2 analytically  !
 ! D41   D(18,6,7,21)         -164.221          calculate D2E/DX2 analytically  !
 ! D42   D(19,6,7,8)          -168.726          calculate D2E/DX2 analytically  !
 ! D43   D(19,6,7,20)           70.2053         calculate D2E/DX2 analytically  !
 ! D44   D(19,6,7,21)          -47.0814         calculate D2E/DX2 analytically  !
 ! D45   D(6,7,8,9)            143.3239         calculate D2E/DX2 analytically  !
 ! D46   D(6,7,8,10)           -40.3611         calculate D2E/DX2 analytically  !
 ! D47   D(20,7,8,9)           -94.0692         calculate D2E/DX2 analytically  !
 ! D48   D(20,7,8,10)           82.2458         calculate D2E/DX2 analytically  !
 ! D49   D(21,7,8,9)            19.6809         calculate D2E/DX2 analytically  !
 ! D50   D(21,7,8,10)         -164.0041         calculate D2E/DX2 analytically  !
 ! D51   D(7,8,10,11)          171.4381         calculate D2E/DX2 analytically  !
 ! D52   D(7,8,10,14)           57.6607         calculate D2E/DX2 analytically  !
 ! D53   D(7,8,10,22)          -64.8926         calculate D2E/DX2 analytically  !
 ! D54   D(9,8,10,11)          -12.2874         calculate D2E/DX2 analytically  !
 ! D55   D(9,8,10,14)         -126.0647         calculate D2E/DX2 analytically  !
 ! D56   D(9,8,10,22)          111.382          calculate D2E/DX2 analytically  !
 ! D57   D(8,10,11,12)        -112.4789         calculate D2E/DX2 analytically  !
 ! D58   D(8,10,11,23)           7.7646         calculate D2E/DX2 analytically  !
 ! D59   D(8,10,11,24)         130.3599         calculate D2E/DX2 analytically  !
 ! D60   D(14,10,11,12)          7.6724         calculate D2E/DX2 analytically  !
 ! D61   D(14,10,11,23)        127.9159         calculate D2E/DX2 analytically  !
 ! D62   D(14,10,11,24)       -109.4888         calculate D2E/DX2 analytically  !
 ! D63   D(22,10,11,12)        125.9373         calculate D2E/DX2 analytically  !
 ! D64   D(22,10,11,23)       -113.8192         calculate D2E/DX2 analytically  !
 ! D65   D(22,10,11,24)          8.7761         calculate D2E/DX2 analytically  !
 ! D66   D(8,10,14,4)           22.966          calculate D2E/DX2 analytically  !
 ! D67   D(8,10,14,13)         140.227          calculate D2E/DX2 analytically  !
 ! D68   D(8,10,14,26)        -101.9099         calculate D2E/DX2 analytically  !
 ! D69   D(11,10,14,4)         -96.7773         calculate D2E/DX2 analytically  !
 ! D70   D(11,10,14,13)         20.4837         calculate D2E/DX2 analytically  !
 ! D71   D(11,10,14,26)        138.3468         calculate D2E/DX2 analytically  !
 ! D72   D(22,10,14,4)         144.1137         calculate D2E/DX2 analytically  !
 ! D73   D(22,10,14,13)        -98.6254         calculate D2E/DX2 analytically  !
 ! D74   D(22,10,14,26)         19.2378         calculate D2E/DX2 analytically  !
 ! D75   D(10,11,12,2)          84.2052         calculate D2E/DX2 analytically  !
 ! D76   D(10,11,12,13)        -33.5485         calculate D2E/DX2 analytically  !
 ! D77   D(10,11,12,25)       -151.8241         calculate D2E/DX2 analytically  !
 ! D78   D(23,11,12,2)         -35.735          calculate D2E/DX2 analytically  !
 ! D79   D(23,11,12,13)       -153.4887         calculate D2E/DX2 analytically  !
 ! D80   D(23,11,12,25)         88.2357         calculate D2E/DX2 analytically  !
 ! D81   D(24,11,12,2)        -157.2774         calculate D2E/DX2 analytically  !
 ! D82   D(24,11,12,13)         84.969          calculate D2E/DX2 analytically  !
 ! D83   D(24,11,12,25)        -33.3067         calculate D2E/DX2 analytically  !
 ! D84   D(2,12,13,14)         -69.051          calculate D2E/DX2 analytically  !
 ! D85   D(11,12,13,14)         48.0442         calculate D2E/DX2 analytically  !
 ! D86   D(25,12,13,14)        169.2181         calculate D2E/DX2 analytically  !
 ! D87   D(12,13,14,4)          69.799          calculate D2E/DX2 analytically  !
 ! D88   D(12,13,14,10)        -43.2154         calculate D2E/DX2 analytically  !
 ! D89   D(12,13,14,26)       -166.1571         calculate D2E/DX2 analytically  !
 --------------------------------------------------------------------------------
 Trust Radius=3.00D-01 FncErr=1.00D-07 GrdErr=1.00D-06 EigMax=2.50D+02 EigMin=1.00D-04
 Number of steps in this run=    156 maximum allowed number of steps=    156.
 GradGradGradGradGradGradGradGradGradGradGradGradGradGradGradGradGradGrad

 Leave Link  103 at Tue Jan 20 11:16:13 2026, MaxMem=  4294967296 cpu:               0.4 elap:               0.0
 (Enter /root/g16/l202.exe)
                          Input orientation:                          
 ---------------------------------------------------------------------
 Center     Atomic      Atomic             Coordinates (Angstroms)
 Number     Number       Type             X           Y           Z
 ---------------------------------------------------------------------
      1          8           0        2.767662    0.380022    1.527015
      2          6           0        1.908775    0.433813    0.667165
      3          6           0        0.728015    1.290597    0.749198
      4          6           0       -0.233742    1.211510   -0.182369
      5          6           0       -1.562011    1.885942   -0.122904
      6          6           0       -2.671533    0.905482   -0.524039
      7          6           0       -2.634912   -0.365104    0.326043
      8          6           0       -1.297440   -1.055593    0.488007
      9          8           0       -1.008349   -1.574886    1.541050
     10          6           0       -0.367982   -1.154761   -0.722595
     11          6           0        1.018104   -1.690285   -0.334464
     12          6           0        1.937696   -0.467269   -0.567041
     13          8           0        1.345315    0.187272   -1.668345
     14          6           0       -0.014637    0.248503   -1.318375
     15          1           0        0.648320    1.937839    1.610511
     16          1           0       -1.735932    2.271427    0.882772
     17          1           0       -1.566075    2.732638   -0.815129
     18          1           0       -2.588256    0.653089   -1.580651
     19          1           0       -3.639469    1.387451   -0.380743
     20          1           0       -3.313990   -1.107612   -0.104339
     21          1           0       -2.992779   -0.151968    1.336268
     22          1           0       -0.851344   -1.782724   -1.474053
     23          1           0        1.041537   -2.027577    0.700945
     24          1           0        1.325920   -2.504735   -0.987312
     25          1           0        2.963879   -0.737422   -0.819382
     26          1           0       -0.564258    0.513698   -2.219971
 ---------------------------------------------------------------------
                    Distance matrix (angstroms):
                    1          2          3          4          5
     1  O    0.000000
     2  C    1.216520   0.000000
     3  C    2.365228   1.461164   0.000000
     4  C    3.552716   2.432468   1.341286   0.000000
     5  C    4.871970   3.844378   2.521749   1.490870   0.000000
     6  C    5.836761   4.756119   3.650531   2.480568   1.534032
     7  C    5.584384   4.625983   3.772225   2.917158   2.533748
     8  C    4.434590   3.539808   3.110514   2.592415   3.015931
     9  O    4.252073   3.648035   3.442816   3.366629   3.879770
    10  C    4.153139   3.104613   3.057312   2.430864   3.321327
    11  C    3.288196   2.511643   3.184985   3.163963   4.414879
    12  C    2.406620   1.528414   2.507170   2.771536   4.240614
    13  O    3.502934   2.415135   2.728167   2.398042   3.704917
    14  C    3.981800   2.770600   2.431532   1.505290   2.550436
    15  H    2.631610   2.177324   1.080340   2.126031   2.809445
    16  H    4.926949   4.087445   2.655355   2.124741   1.090976
    17  H    5.459095   4.422259   3.128810   2.118803   1.093657
    18  H    6.198227   5.032301   4.102715   2.794774   2.167518
    19  H    6.760606   5.726304   4.512324   3.416034   2.151932
    20  H    6.469997   5.499862   4.776791   3.856467   3.468594
    21  H    5.788098   4.981573   4.033603   3.431853   2.886063
    22  H    5.175045   4.137163   4.108835   3.318933   3.973634
    23  H    3.075457   2.609920   3.333302   3.591415   4.772088
    24  H    4.089289   3.422292   4.216337   4.109861   5.325917
    25  H    2.606293   2.166762   3.401822   3.798540   5.277386
    26  H    5.015921   3.802345   3.330090   2.178991   2.697453
                    6          7          8          9         10
     6  C    0.000000
     7  C    1.529173   0.000000
     8  C    2.599651   1.513882   0.000000
     9  O    3.630839   2.363370   1.209188   0.000000
    10  C    3.096833   2.619574   1.529472   2.389699   0.000000
    11  C    4.515237   3.941687   2.537920   2.763581   1.535795
    12  C    4.809499   4.660126   3.453311   3.788146   2.411015
    13  O    4.237963   4.486079   3.630251   4.352602   2.372948
    14  C    2.849857   3.153801   2.570849   3.533910   1.564914
    15  H    4.079643   4.211058   3.742543   3.884406   4.005050
    16  H    2.172618   2.840669   3.378931   3.969487   4.023338
    17  H    2.155289   3.469970   4.015099   4.941396   4.068889
    18  H    1.089526   2.162031   2.977440   4.147891   2.989014
    19  H    1.090747   2.140124   3.494036   4.403580   4.157202
    20  H    2.154401   1.094392   2.102392   2.870823   3.010553
    21  H    2.163825   1.092726   2.100061   2.450427   3.483399
    22  H    3.382612   2.903637   2.139487   3.026333   1.092093
    23  H    4.887772   4.052239   2.541832   2.261137   2.185181
    24  H    5.274830   4.689468   3.340449   3.564554   2.182157
    25  H    5.877435   5.726874   4.468707   4.695912   3.359292
    26  H    2.733182   3.397365   3.214557   4.324890   2.250426
                   11         12         13         14         15
    11  C    0.000000
    12  C    1.547744   0.000000
    13  O    2.326269   1.411456   0.000000
    14  C    2.406976   2.210981   1.405595   0.000000
    15  H    4.133152   3.491241   3.781690   3.445539   0.000000
    16  H    4.976097   4.806033   4.510652   3.449656   2.515064
    17  H    5.145024   4.751564   3.960184   2.971724   3.379198
    18  H    4.477747   4.771462   3.962027   2.618396   4.723296
    19  H    5.582794   5.880430   5.286437   3.913536   4.759533
    20  H    4.377157   5.310776   5.082515   3.768111   5.283500
    21  H    4.609224   5.294486   5.287895   4.009593   4.207149
    22  H    2.191357   3.214318   2.957016   2.202316   5.060249
    23  H    1.089213   2.201239   3.257510   3.220822   4.087353
    24  H    1.088251   2.168448   2.776884   3.080100   5.190788
    25  H    2.220166   1.090739   2.048304   3.176886   4.292227
    26  H    3.304020   3.155035   2.014278   1.088709   4.262758
                   16         17         18         19         20
    16  H    0.000000
    17  H    1.767607   0.000000
    18  H    3.068212   2.440369   0.000000
    19  H    2.449763   2.509419   1.756165   0.000000
    20  H    3.857791   4.278778   2.409617   2.531338   0.000000
    21  H    2.767339   3.871039   3.052896   2.395025   1.758346
    22  H    4.772134   4.618822   2.993562   4.361075   2.897675
    23  H    5.121409   5.635403   5.056387   5.894428   4.523874
    24  H    5.973598   5.985262   5.064058   6.338149   4.925481
    25  H    5.834272   5.706297   5.774016   6.950662   6.329295
    26  H    3.753590   2.810856   2.127141   3.688241   3.829565
                   21         22         23         24         25
    21  H    0.000000
    22  H    3.891403   0.000000
    23  H    4.494135   2.893712   0.000000
    24  H    5.439274   2.344930   1.777291   0.000000
    25  H    6.361711   4.009636   2.769710   2.415472   0.000000
    26  H    4.357483   2.431536   4.191468   3.768708   3.996837
                   26
    26  H    0.000000
 Stoichiometry    C11H12O3
 Framework group  C1[X(C11H12O3)]
 Deg. of freedom    72
 Full point group                 C1      NOp   1
 Largest Abelian subgroup         C1      NOp   1
 Largest concise Abelian subgroup C1      NOp   1
                         Standard orientation:                         
 ---------------------------------------------------------------------
 Center     Atomic      Atomic             Coordinates (Angstroms)
 Number     Number       Type             X           Y           Z
 ---------------------------------------------------------------------
      1          8           0        2.854621   -0.377633   -1.484290
      2          6           0        1.950060   -0.494447   -0.679276
      3          6           0        0.702475   -1.203477   -0.954613
      4          6           0       -0.296135   -1.192342   -0.059235
      5          6           0       -1.675071   -1.712036   -0.285393
      6          6           0       -2.710790   -0.711238    0.242757
      7          6           0       -2.514116    0.677371   -0.366712
      8          6           0       -1.112844    1.250205   -0.355150
      9          8           0       -0.722479    1.912795   -1.288277
     10          6           0       -0.243657    1.046302    0.886713
     11          6           0        1.203888    1.501613    0.650130
     12          6           0        1.995162    0.172196    0.695352
     13          8           0        1.288363   -0.601385    1.640982
     14          6           0       -0.051083   -0.466772    1.236680
     15          1           0        0.610147   -1.680876   -1.919341
     16          1           0       -1.829720   -1.898654   -1.349106
     17          1           0       -1.792565   -2.661142    0.245153
     18          1           0       -2.661053   -0.654924    1.329689
     19          1           0       -3.709492   -1.063341   -0.018675
     20          1           0       -3.144900    1.397489    0.163606
     21          1           0       -2.835822    0.678571   -1.411008
     22          1           0       -0.707202    1.579322    1.719589
     23          1           0        1.312624    2.008986   -0.307542
     24          1           0        1.549281    2.156452    1.447739
     25          1           0        3.026804    0.292117    1.028587
     26          1           0       -0.669471   -0.828468    2.056472
 ---------------------------------------------------------------------
 Rotational constants (GHZ):           1.1849603           0.6825449           0.6322115
 Leave Link  202 at Tue Jan 20 11:16:13 2026, MaxMem=  4294967296 cpu:               0.3 elap:               0.0
 (Enter /root/g16/l301.exe)
 Standard basis: def2SVP (5D, 7F)
 Ernie: Thresh=  0.10000D-02 Tol=  0.10000D-05 Strict=F.
 There are   270 symmetry adapted cartesian basis functions of A   symmetry.
 There are   256 symmetry adapted basis functions of A   symmetry.
   256 basis functions,   434 primitive gaussians,   270 cartesian basis functions
    51 alpha electrons       51 beta electrons
       nuclear repulsion energy       956.4567176139 Hartrees.
 IExCor=  402 DFT=T Ex+Corr=B3LYP ExCW=0 ScaHFX=  0.200000
 ScaDFX=  0.800000  0.720000  1.000000  0.810000 ScalE2=  1.000000  1.000000
 IRadAn=      5 IRanWt=     -1 IRanGd=            0 ICorTp=0 IEmpDi=141
 NAtoms=   26 NActive=   26 NUniq=   26 SFac= 1.00D+00 NAtFMM=   60 NAOKFM=F Big=F
 Integral buffers will be    131072 words long.
 Raffenetti 2 integral format.
 Two-electron integral symmetry is turned on.
 R6Disp:  Grimme-D3(BJ) Dispersion energy=       -0.0582737778 Hartrees.
 Nuclear repulsion after empirical dispersion term =      956.3984438360 Hartrees.
 Force inversion solution in PCM.
 ------------------------------------------------------------------------------
 Polarizable Continuum Model (PCM)
 =================================
 Model                : PCM.
 Atomic radii         : UFF (Universal Force Field).
 Polarization charges : Total charges.
 Charge compensation  : None.
 Solution method      : Matrix inversion.
 Cavity type          : Scaled VdW (van der Waals Surface) (Alpha=1.100).
 Cavity algorithm     : GePol (No added spheres)
                        Default sphere list used, NSphG=   26.
                        Lebedev-Laikov grids with approx.  5.0 points / Ang**2.
                        Smoothing algorithm: York/Karplus (Gamma=1.0000).
                        Polarization charges: spherical gaussians, with
                                              point-specific exponents (IZeta= 3).
                        Self-potential: point-specific (ISelfS= 7).
                        Self-field    : sphere-specific E.n sum rule (ISelfD= 2).
 1st derivatives      : Analytical E(r).r(x)/FMM algorithm (CHGder, D1EAlg=3).
                        Cavity 1st derivative terms included.
 2nd derivatives      : Analytical E(r).r(xy)/FMM algorithm (CHGder, D2EAlg=3).
                        Cavity 2nd derivative terms included.
 Solvent              : Acetone, Eps=  20.493000 Eps(inf)=   1.846337
 ------------------------------------------------------------------------------
 GePol: Number of generator spheres                  =      26
 GePol: Total number of spheres                      =      26
 GePol: Number of exposed spheres                    =      26 (100.00%)
 GePol: Number of points                             =    1814
 GePol: Average weight of points                     =       0.13
 GePol: Minimum weight of points                     =   0.44D-10
 GePol: Maximum weight of points                     =    0.20577
 GePol: Number of points with low weight             =     120
 GePol: Fraction of low-weight points (<1% of avg)   =       6.62%
 GePol: Cavity surface area                          =    235.116 Ang**2
 GePol: Cavity volume                                =    255.349 Ang**3
 Leave Link  301 at Tue Jan 20 11:16:13 2026, MaxMem=  4294967296 cpu:               0.4 elap:               0.0
 (Enter /root/g16/l302.exe)
 NPDir=0 NMtPBC=     1 NCelOv=     1 NCel=       1 NClECP=     1 NCelD=      1
         NCelK=      1 NCelE2=     1 NClLst=     1 CellRange=     0.0.
 One-electron integrals computed using PRISM.
 One-electron integral symmetry used in STVInt
   1 Symmetry operations used in ECPInt.
 ECPInt:  NShTT=    7260 NPrTT=   26324 LenC2=    7150 LenP2D=   19996.
 LDataN:  DoStor=T MaxTD1= 4 Len=   56
 NBasis=   256 RedAO= T EigKep=  3.17D-04  NBF=   256
 NBsUse=   256 1.00D-06 EigRej= -1.00D+00 NBFU=   256
 Precomputing XC quadrature grid using
 IXCGrd= 4 IRadAn=           5 IRanWt=          -1 IRanGd=           0 AccXCQ= 0.00D+00.
 Generated NRdTot=       0 NPtTot=           0 NUsed=           0 NTot=          32
 NSgBfM=   270   270   270   270   270 MxSgAt=    26 MxSgA2=    26.
 Leave Link  302 at Tue Jan 20 11:16:13 2026, MaxMem=  4294967296 cpu:               1.9 elap:               0.1
 (Enter /root/g16/l303.exe)
 DipDrv:  MaxL=1.
 Leave Link  303 at Tue Jan 20 11:16:13 2026, MaxMem=  4294967296 cpu:               0.2 elap:               0.0
 (Enter /root/g16/l401.exe)
 ExpMin= 1.22D-01 ExpMax= 2.27D+03 ExpMxC= 3.41D+02 IAcc=3 IRadAn=         5 AccDes= 0.00D+00
 Harris functional with IExCor=  402 and IRadAn=       5 diagonalized for initial guess.
 HarFok:  IExCor=  402 AccDes= 0.00D+00 IRadAn=         5 IDoV= 1 UseB2=F ITyADJ=14
 ICtDFT=  3500011 ScaDFX=  1.000000  1.000000  1.000000  1.000000
 FoFCou: FMM=F IPFlag=           0 FMFlag=      100000 FMFlg1=           0
         NFxFlg=           0 DoJE=T BraDBF=F KetDBF=T FulRan=T
         wScrn=  0.000000 ICntrl=       500 IOpCl=  0 I1Cent=   200000004 NGrid=           0
         NMat0=    1 NMatS0=      1 NMatT0=    0 NMatD0=    1 NMtDS0=    0 NMtDT0=    0
 Petite list used in FoFCou.
 Harris En= -651.603701668619    
 JPrj=0 DoOrth=F DoCkMO=F.
 Leave Link  401 at Tue Jan 20 11:16:14 2026, MaxMem=  4294967296 cpu:               8.4 elap:               0.6
 (Enter /root/g16/l502.exe)
 Integral symmetry usage will be decided dynamically.
 Closed shell SCF:
 Using DIIS extrapolation, IDIIS=  1040.
 NGot=  4294967296 LenX=  4294814202 LenY=  4294740861
 Requested convergence on RMS density matrix=1.00D-08 within 128 cycles.
 Requested convergence on MAX density matrix=1.00D-06.
 Requested convergence on             energy=1.00D-06.
 No special actions if energy rises.
 Fock matrices will be formed incrementally for  20 cycles.

 Cycle   1  Pass 1  IDiag  1:
 FoFJK:  IHMeth= 1 ICntrl=       0 DoSepK=F KAlg= 0 I1Cent=           0 FoldK=F
 IRaf= 960000000 NMat=       1 IRICut=       1 DoRegI=T DoRafI=F ISym2E= 0 IDoP0=0 IntGTp=1.
 FoFCou: FMM=F IPFlag=           0 FMFlag=      100000 FMFlg1=           0
         NFxFlg=           0 DoJE=F BraDBF=F KetDBF=F FulRan=T
         wScrn=  0.000000 ICntrl=         0 IOpCl=  0 I1Cent=           0 NGrid=           0
         NMat0=    1 NMatS0=      1 NMatT0=    0 NMatD0=    1 NMtDS0=    0 NMtDT0=    0
 Symmetry not used in FoFCou.
 Inv3:  Mode=1 IEnd=     9871788.
 Iteration    1 A*A^-1 deviation from unit magnitude is 3.11D-15 for    203.
 Iteration    1 A*A^-1 deviation from orthogonality  is 2.78D-15 for   1046    239.
 Iteration    1 A^-1*A deviation from unit magnitude is 3.33D-15 for   1473.
 Iteration    1 A^-1*A deviation from orthogonality  is 1.81D-15 for   1441    373.
 E= -651.335291795705    
 DIIS: error= 2.09D-02 at cycle   1 NSaved=   1.
 NSaved= 1 IEnMin= 1 EnMin= -651.335291795705     IErMin= 1 ErrMin= 2.09D-02
 ErrMax= 2.09D-02  0.00D+00 EMaxC= 1.00D-01 BMatC= 3.07D-01 BMatP= 3.07D-01
 IDIUse=3 WtCom= 7.91D-01 WtEn= 2.09D-01
 Coeff-Com:  0.100D+01
 Coeff-En:   0.100D+01
 Coeff:      0.100D+01
 Gap=     0.144 Goal=   None    Shift=    0.000
 GapD=    0.144 DampG=1.000 DampE=0.500 DampFc=0.5000 IDamp=-1.
 Damping current iteration by 5.00D-01
 RMSDP=7.33D-03 MaxDP=3.59D-01              OVMax= 1.74D-01

 Cycle   2  Pass 1  IDiag  1:
 RMSU=  3.66D-03    CP:  9.91D-01
 E= -651.442696343127     Delta-E=       -0.107404547422 Rises=F Damp=T
 DIIS: error= 7.03D-03 at cycle   2 NSaved=   2.
 NSaved= 2 IEnMin= 2 EnMin= -651.442696343127     IErMin= 2 ErrMin= 7.03D-03
 ErrMax= 7.03D-03  0.00D+00 EMaxC= 1.00D-01 BMatC= 3.38D-02 BMatP= 3.07D-01
 IDIUse=3 WtCom= 9.30D-01 WtEn= 7.03D-02
 Coeff-Com:  0.162D+00 0.838D+00
 Coeff-En:   0.226D+00 0.774D+00
 Coeff:      0.166D+00 0.834D+00
 Gap=     0.192 Goal=   None    Shift=    0.000
 RMSDP=2.24D-03 MaxDP=1.23D-01 DE=-1.07D-01 OVMax= 1.40D-01

 Cycle   3  Pass 1  IDiag  1:
 RMSU=  2.10D-03    CP:  9.65D-01  8.55D-01
 E= -651.590772049598     Delta-E=       -0.148075706471 Rises=F Damp=F
 DIIS: error= 8.67D-03 at cycle   3 NSaved=   3.
 NSaved= 3 IEnMin= 3 EnMin= -651.590772049598     IErMin= 2 ErrMin= 7.03D-03
 ErrMax= 8.67D-03  0.00D+00 EMaxC= 1.00D-01 BMatC= 3.69D-02 BMatP= 3.38D-02
 IDIUse=3 WtCom= 9.13D-01 WtEn= 8.67D-02
 Coeff-Com:  0.277D-01 0.510D+00 0.462D+00
 Coeff-En:   0.000D+00 0.000D+00 0.100D+01
 Coeff:      0.253D-01 0.466D+00 0.509D+00
 Gap=     0.175 Goal=   None    Shift=    0.000
 RMSDP=1.32D-03 MaxDP=4.80D-02 DE=-1.48D-01 OVMax= 6.22D-02

 Cycle   4  Pass 1  IDiag  1:
 RMSU=  9.35D-04    CP:  9.76D-01  9.94D-01  6.51D-01
 E= -651.617582664139     Delta-E=       -0.026810614541 Rises=F Damp=F
 DIIS: error= 3.38D-03 at cycle   4 NSaved=   4.
 NSaved= 4 IEnMin= 4 EnMin= -651.617582664139     IErMin= 4 ErrMin= 3.38D-03
 ErrMax= 3.38D-03  0.00D+00 EMaxC= 1.00D-01 BMatC= 6.26D-03 BMatP= 3.38D-02
 IDIUse=3 WtCom= 9.66D-01 WtEn= 3.38D-02
 Coeff-Com:  0.243D-02 0.128D+00 0.311D+00 0.559D+00
 Coeff-En:   0.000D+00 0.000D+00 0.172D+00 0.828D+00
 Coeff:      0.235D-02 0.123D+00 0.306D+00 0.568D+00
 Gap=     0.176 Goal=   None    Shift=    0.000
 RMSDP=5.65D-04 MaxDP=2.42D-02 DE=-2.68D-02 OVMax= 2.27D-02

 Cycle   5  Pass 1  IDiag  1:
 RMSU=  2.21D-04    CP:  9.72D-01  9.25D-01  7.34D-01  5.63D-01
 E= -651.622859354541     Delta-E=       -0.005276690402 Rises=F Damp=F
 DIIS: error= 4.59D-04 at cycle   5 NSaved=   5.
 NSaved= 5 IEnMin= 5 EnMin= -651.622859354541     IErMin= 5 ErrMin= 4.59D-04
 ErrMax= 4.59D-04  0.00D+00 EMaxC= 1.00D-01 BMatC= 1.54D-04 BMatP= 6.26D-03
 IDIUse=3 WtCom= 9.95D-01 WtEn= 4.59D-03
 Coeff-Com: -0.513D-03 0.201D-01 0.100D+00 0.246D+00 0.634D+00
 Coeff-En:   0.000D+00 0.000D+00 0.000D+00 0.000D+00 0.100D+01
 Coeff:     -0.511D-03 0.200D-01 0.996D-01 0.245D+00 0.636D+00
 Gap=     0.174 Goal=   None    Shift=    0.000
 RMSDP=9.60D-05 MaxDP=3.76D-03 DE=-5.28D-03 OVMax= 9.15D-03

 Cycle   6  Pass 1  IDiag  1:
 RMSU=  5.92D-05    CP:  9.72D-01  9.32D-01  7.35D-01  6.09D-01  7.47D-01
 E= -651.622968386819     Delta-E=       -0.000109032278 Rises=F Damp=F
 DIIS: error= 2.60D-04 at cycle   6 NSaved=   6.
 NSaved= 6 IEnMin= 6 EnMin= -651.622968386819     IErMin= 6 ErrMin= 2.60D-04
 ErrMax= 2.60D-04  0.00D+00 EMaxC= 1.00D-01 BMatC= 4.50D-05 BMatP= 1.54D-04
 IDIUse=3 WtCom= 9.97D-01 WtEn= 2.60D-03
 Coeff-Com: -0.420D-03-0.284D-03 0.320D-01 0.965D-01 0.404D+00 0.469D+00
 Coeff-En:   0.000D+00 0.000D+00 0.000D+00 0.000D+00 0.236D+00 0.764D+00
 Coeff:     -0.419D-03-0.283D-03 0.320D-01 0.963D-01 0.403D+00 0.469D+00
 Gap=     0.175 Goal=   None    Shift=    0.000
 RMSDP=3.30D-05 MaxDP=1.61D-03 DE=-1.09D-04 OVMax= 3.82D-03

 Cycle   7  Pass 1  IDiag  1:
 RMSU=  1.39D-05    CP:  9.72D-01  9.33D-01  7.36D-01  6.06D-01  7.75D-01
                    CP:  5.10D-01
 E= -651.623013979805     Delta-E=       -0.000045592985 Rises=F Damp=F
 DIIS: error= 4.22D-05 at cycle   7 NSaved=   7.
 NSaved= 7 IEnMin= 7 EnMin= -651.623013979805     IErMin= 7 ErrMin= 4.22D-05
 ErrMax= 4.22D-05  0.00D+00 EMaxC= 1.00D-01 BMatC= 1.25D-06 BMatP= 4.50D-05
 IDIUse=1 WtCom= 1.00D+00 WtEn= 0.00D+00
 Coeff-Com: -0.130D-03-0.134D-02 0.987D-02 0.318D-01 0.160D+00 0.227D+00
 Coeff-Com:  0.573D+00
 Coeff:     -0.130D-03-0.134D-02 0.987D-02 0.318D-01 0.160D+00 0.227D+00
 Coeff:      0.573D+00
 Gap=     0.175 Goal=   None    Shift=    0.000
 RMSDP=6.66D-06 MaxDP=2.09D-04 DE=-4.56D-05 OVMax= 3.49D-04

 Cycle   8  Pass 1  IDiag  1:
 RMSU=  4.41D-06    CP:  9.72D-01  9.32D-01  7.37D-01  6.08D-01  7.74D-01
                    CP:  5.14D-01  6.93D-01
 E= -651.623015077662     Delta-E=       -0.000001097857 Rises=F Damp=F
 DIIS: error= 1.05D-05 at cycle   8 NSaved=   8.
 NSaved= 8 IEnMin= 8 EnMin= -651.623015077662     IErMin= 8 ErrMin= 1.05D-05
 ErrMax= 1.05D-05  0.00D+00 EMaxC= 1.00D-01 BMatC= 1.01D-07 BMatP= 1.25D-06
 IDIUse=1 WtCom= 1.00D+00 WtEn= 0.00D+00
 Coeff-Com:  0.147D-04-0.672D-03 0.170D-02 0.560D-02 0.374D-01 0.607D-01
 Coeff-Com:  0.261D+00 0.634D+00
 Coeff:      0.147D-04-0.672D-03 0.170D-02 0.560D-02 0.374D-01 0.607D-01
 Coeff:      0.261D+00 0.634D+00
 Gap=     0.175 Goal=   None    Shift=    0.000
 RMSDP=2.27D-06 MaxDP=1.36D-04 DE=-1.10D-06 OVMax= 5.60D-05

 Cycle   9  Pass 1  IDiag  1:
 RMSU=  1.43D-06    CP:  9.72D-01  9.32D-01  7.37D-01  6.07D-01  7.78D-01
                    CP:  5.23D-01  7.21D-01  7.37D-01
 E= -651.623015155458     Delta-E=       -0.000000077796 Rises=F Damp=F
 DIIS: error= 5.83D-06 at cycle   9 NSaved=   9.
 NSaved= 9 IEnMin= 9 EnMin= -651.623015155458     IErMin= 9 ErrMin= 5.83D-06
 ErrMax= 5.83D-06  0.00D+00 EMaxC= 1.00D-01 BMatC= 1.57D-08 BMatP= 1.01D-07
 IDIUse=1 WtCom= 1.00D+00 WtEn= 0.00D+00
 Coeff-Com:  0.233D-04-0.293D-03 0.277D-03 0.824D-03 0.966D-02 0.165D-01
 Coeff-Com:  0.101D+00 0.354D+00 0.518D+00
 Coeff:      0.233D-04-0.293D-03 0.277D-03 0.824D-03 0.966D-02 0.165D-01
 Coeff:      0.101D+00 0.354D+00 0.518D+00
 Gap=     0.175 Goal=   None    Shift=    0.000
 RMSDP=7.55D-07 MaxDP=3.49D-05 DE=-7.78D-08 OVMax= 2.59D-05

 Cycle  10  Pass 1  IDiag  1:
 RMSU=  4.93D-07    CP:  9.72D-01  9.32D-01  7.37D-01  6.07D-01  7.78D-01
                    CP:  5.22D-01  7.27D-01  7.83D-01  6.64D-01
 E= -651.623015165883     Delta-E=       -0.000000010425 Rises=F Damp=F
 DIIS: error= 2.88D-06 at cycle  10 NSaved=  10.
 NSaved=10 IEnMin=10 EnMin= -651.623015165883     IErMin=10 ErrMin= 2.88D-06
 ErrMax= 2.88D-06  0.00D+00 EMaxC= 1.00D-01 BMatC= 2.44D-09 BMatP= 1.57D-08
 IDIUse=1 WtCom= 1.00D+00 WtEn= 0.00D+00
 Coeff-Com:  0.148D-04-0.719D-04-0.110D-03-0.469D-03-0.288D-03-0.497D-03
 Coeff-Com:  0.182D-01 0.110D+00 0.315D+00 0.558D+00
 Coeff:      0.148D-04-0.719D-04-0.110D-03-0.469D-03-0.288D-03-0.497D-03
 Coeff:      0.182D-01 0.110D+00 0.315D+00 0.558D+00
 Gap=     0.175 Goal=   None    Shift=    0.000
 RMSDP=3.02D-07 MaxDP=1.40D-05 DE=-1.04D-08 OVMax= 1.03D-05

 Cycle  11  Pass 1  IDiag  1:
 RMSU=  1.75D-07    CP:  9.72D-01  9.32D-01  7.37D-01  6.07D-01  7.78D-01
                    CP:  5.22D-01  7.30D-01  7.95D-01  7.12D-01  6.09D-01
 E= -651.623015167780     Delta-E=       -0.000000001897 Rises=F Damp=F
 DIIS: error= 6.18D-07 at cycle  11 NSaved=  11.
 NSaved=11 IEnMin=11 EnMin= -651.623015167780     IErMin=11 ErrMin= 6.18D-07
 ErrMax= 6.18D-07  0.00D+00 EMaxC= 1.00D-01 BMatC= 1.90D-10 BMatP= 2.44D-09
 IDIUse=1 WtCom= 1.00D+00 WtEn= 0.00D+00
 Coeff-Com:  0.655D-05-0.140D-04-0.766D-04-0.316D-03-0.903D-03-0.179D-02
 Coeff-Com:  0.104D-02 0.270D-01 0.120D+00 0.297D+00 0.558D+00
 Coeff:      0.655D-05-0.140D-04-0.766D-04-0.316D-03-0.903D-03-0.179D-02
 Coeff:      0.104D-02 0.270D-01 0.120D+00 0.297D+00 0.558D+00
 Gap=     0.175 Goal=   None    Shift=    0.000
 RMSDP=8.34D-08 MaxDP=3.48D-06 DE=-1.90D-09 OVMax= 2.73D-06

 Cycle  12  Pass 1  IDiag  1:
 RMSU=  5.64D-08    CP:  9.72D-01  9.32D-01  7.37D-01  6.07D-01  7.78D-01
                    CP:  5.21D-01  7.30D-01  8.00D-01  7.19D-01  6.72D-01
                    CP:  7.80D-01
 E= -651.623015167921     Delta-E=       -0.000000000140 Rises=F Damp=F
 DIIS: error= 1.92D-07 at cycle  12 NSaved=  12.
 NSaved=12 IEnMin=12 EnMin= -651.623015167921     IErMin=12 ErrMin= 1.92D-07
 ErrMax= 1.92D-07  0.00D+00 EMaxC= 1.00D-01 BMatC= 1.87D-11 BMatP= 1.90D-10
 IDIUse=1 WtCom= 1.00D+00 WtEn= 0.00D+00
 Coeff-Com:  0.142D-05 0.134D-05-0.223D-04-0.985D-04-0.392D-03-0.895D-03
 Coeff-Com: -0.174D-02-0.132D-02 0.189D-01 0.803D-01 0.282D+00 0.623D+00
 Coeff:      0.142D-05 0.134D-05-0.223D-04-0.985D-04-0.392D-03-0.895D-03
 Coeff:     -0.174D-02-0.132D-02 0.189D-01 0.803D-01 0.282D+00 0.623D+00
 Gap=     0.175 Goal=   None    Shift=    0.000
 RMSDP=2.67D-08 MaxDP=8.67D-07 DE=-1.40D-10 OVMax= 7.79D-07

 Cycle  13  Pass 1  IDiag  1:
 RMSU=  1.51D-08    CP:  9.72D-01  9.32D-01  7.37D-01  6.07D-01  7.78D-01
                    CP:  5.21D-01  7.30D-01  8.00D-01  7.25D-01  6.86D-01
                    CP:  8.07D-01  7.92D-01
 E= -651.623015167933     Delta-E=       -0.000000000013 Rises=F Damp=F
 DIIS: error= 3.63D-08 at cycle  13 NSaved=  13.
 NSaved=13 IEnMin=13 EnMin= -651.623015167933     IErMin=13 ErrMin= 3.63D-08
 ErrMax= 3.63D-08  0.00D+00 EMaxC= 1.00D-01 BMatC= 1.29D-12 BMatP= 1.87D-11
 IDIUse=1 WtCom= 1.00D+00 WtEn= 0.00D+00
 Coeff-Com:  0.317D-06 0.116D-05-0.421D-05-0.233D-04-0.104D-03-0.289D-03
 Coeff-Com: -0.730D-03-0.220D-02 0.947D-03 0.178D-01 0.908D-01 0.287D+00
 Coeff-Com:  0.607D+00
 Coeff:      0.317D-06 0.116D-05-0.421D-05-0.233D-04-0.104D-03-0.289D-03
 Coeff:     -0.730D-03-0.220D-02 0.947D-03 0.178D-01 0.908D-01 0.287D+00
 Coeff:      0.607D+00
 Gap=     0.175 Goal=   None    Shift=    0.000
 RMSDP=7.02D-09 MaxDP=2.18D-07 DE=-1.28D-11 OVMax= 2.69D-07

 Error on total polarization charges =  0.00873
 SCF Done:  E(RB3LYP) =  -651.623015168     A.U. after   13 cycles
            NFock= 13  Conv=0.70D-08     -V/T= 2.0094
 KE= 6.455404240292D+02 PE=-3.430026643051D+03 EE= 1.176464760018D+03
 Leave Link  502 at Tue Jan 20 11:16:31 2026, MaxMem=  4294967296 cpu:             274.3 elap:              17.3
 (Enter /root/g16/l801.exe)
 DoSCS=F DFT=T ScalE2(SS,OS)=  1.000000  1.000000
 Range of M.O.s used for correlation:     1   256
 NBasis=   256 NAE=    51 NBE=    51 NFC=     0 NFV=     0
 NROrb=    256 NOA=    51 NOB=    51 NVA=   205 NVB=   205
 Leave Link  801 at Tue Jan 20 11:16:31 2026, MaxMem=  4294967296 cpu:               0.1 elap:               0.0
 (Enter /root/g16/l1101.exe)
 Using compressed storage, NAtomX=    26.
 Will process     27 centers per pass.
   1 Symmetry operations used in ECPInt.
 ECPInt:  NShTT=    7260 NPrTT=   26324 LenC2=    7150 LenP2D=   19996.
 LDataN:  DoStor=T MaxTD1= 5 Len=  102
 R6Disp: Adding Grimme-D3(BJ) dispersion energy 1st derivatives to the gradient.
 Leave Link 1101 at Tue Jan 20 11:16:31 2026, MaxMem=  4294967296 cpu:               3.5 elap:               0.2
 (Enter /root/g16/l1102.exe)
 Symmetrizing basis deriv contribution to polar:
 IMax=3 JMax=2 DiffMx= 0.00D+00
 Leave Link 1102 at Tue Jan 20 11:16:31 2026, MaxMem=  4294967296 cpu:               0.3 elap:               0.0
 (Enter /root/g16/l1110.exe)
 Forming Gx(P) for the SCF density, NAtomX=    26.
 Integral derivatives from FoFJK, PRISM(SPDF).
 Do as many integral derivatives as possible in FoFJK.
 G2DrvN: MDV=    4294965288.
 G2DrvN: will do    27 centers at a time, making    1 passes.
 Calling FoFCou, ICntrl=  3107 FMM=F I1Cent=   0 AccDes= 0.00D+00.
 FoFJK:  IHMeth= 1 ICntrl=    3107 DoSepK=F KAlg= 0 I1Cent=           0 FoldK=F
 IRaf=         0 NMat=       1 IRICut=       1 DoRegI=T DoRafI=F ISym2E= 0 IDoP0=0 IntGTp=1.
 FoFCou: FMM=F IPFlag=           0 FMFlag=      100000 FMFlg1=           0
         NFxFlg=           0 DoJE=F BraDBF=F KetDBF=F FulRan=T
         wScrn=  0.000000 ICntrl=      3107 IOpCl=  0 I1Cent=           0 NGrid=           0
         NMat0=    1 NMatS0=      1 NMatT0=    0 NMatD0=    1 NMtDS0=    0 NMtDT0=    0
 Symmetry not used in FoFCou.
 NEqPCM:  Using equilibrium solvation (IEInf=0, Eps=  20.4930, EpsInf=   1.8463)
 G2PCM: DoFxE=T DoFxN=T DoGrad=T DoDP/DQ/DG/TGxP=FFFF NFrqRd=   0 IEInf=0 SqF1=F DoCFld=F IF1Alg=4.
 GePol: Maximum number of non-zero 1st derivatives   =     222
 End of G2Drv F.D. properties file   721 does not exist.
 End of G2Drv F.D. properties file   722 does not exist.
 End of G2Drv F.D. properties file   788 does not exist.
 Leave Link 1110 at Tue Jan 20 11:16:56 2026, MaxMem=  4294967296 cpu:             399.4 elap:              25.0
 (Enter /root/g16/l1002.exe)
 Minotr:  Closed shell wavefunction.
          IDoAtm=11111111111111111111111111
 NEqPCM:  Using equilibrium solvation (IEInf=0, Eps=  20.4930, EpsInf=   1.8463)
          Direct CPHF calculation.
          Differentiating once with respect to nuclear coordinates.
          Requested convergence is 1.0D-08 RMS, and 1.0D-07 maximum.
          Secondary convergence is 1.0D-12 RMS, and 1.0D-12 maximum.
          NewPWx=T KeepS1=F KeepF1=F KeepIn=T MapXYZ=F SortEE=F KeepMc=T.
         7770 words used for storage of precomputed grid.
 Keep R1 ints in memory in canonical form, NReq=558668842.
 FoFCou: FMM=F IPFlag=           0 FMFlag=           0 FMFlg1=           0
         NFxFlg=           0 DoJE=F BraDBF=F KetDBF=F FulRan=T
         wScrn=  0.000000 ICntrl=       600 IOpCl=  0 I1Cent=           0 NGrid=           0
         NMat0=    1 NMatS0=  32896 NMatT0=    0 NMatD0=    1 NMtDS0=    0 NMtDT0=    0
 Symmetry not used in FoFCou.
 Two-electron integral symmetry not used.
          MDV=    4294967296 using IRadAn=       1.
          Solving linear equations simultaneously, MaxMat=       0.
          There are    81 degrees of freedom in the 1st order CPHF.  IDoFFX=6 NUNeed=     0.
     75 vectors produced by pass  0 Test12= 1.29D-14 1.23D-09 XBig12= 1.45D-01 9.77D-02.
 AX will form    75 AO Fock derivatives at one time.
     75 vectors produced by pass  1 Test12= 1.29D-14 1.23D-09 XBig12= 3.43D-02 6.02D-02.
     75 vectors produced by pass  2 Test12= 1.29D-14 1.23D-09 XBig12= 3.59D-04 2.62D-03.
     75 vectors produced by pass  3 Test12= 1.29D-14 1.23D-09 XBig12= 1.71D-06 1.83D-04.
     75 vectors produced by pass  4 Test12= 1.29D-14 1.23D-09 XBig12= 5.26D-09 6.71D-06.
     53 vectors produced by pass  5 Test12= 1.29D-14 1.23D-09 XBig12= 5.86D-12 1.91D-07.
     10 vectors produced by pass  6 Test12= 1.29D-14 1.23D-09 XBig12= 5.38D-15 6.07D-09.
 InvSVY:  IOpt=1 It=  1 EMax= 3.33D-16
 Solved reduced A of dimension   438 with    81 vectors.
 End of Minotr F.D. properties file   721 does not exist.
 End of Minotr F.D. properties file   722 does not exist.
 End of Minotr F.D. properties file   788 does not exist.
 Leave Link 1002 at Tue Jan 20 11:17:27 2026, MaxMem=  4294967296 cpu:             486.0 elap:              30.4
 (Enter /root/g16/l601.exe)
 Copying SCF densities to generalized density rwf, IOpCl= 0 IROHF=0.

 **********************************************************************

            Population analysis using the SCF density.

 **********************************************************************

 Orbital symmetries:
       Occupied  (A) (A) (A) (A) (A) (A) (A) (A) (A) (A) (A) (A)
                 (A) (A) (A) (A) (A) (A) (A) (A) (A) (A) (A) (A)
                 (A) (A) (A) (A) (A) (A) (A) (A) (A) (A) (A) (A)
                 (A) (A) (A) (A) (A) (A) (A) (A) (A) (A) (A) (A)
                 (A) (A) (A)
       Virtual   (A) (A) (A) (A) (A) (A) (A) (A) (A) (A) (A) (A)
                 (A) (A) (A) (A) (A) (A) (A) (A) (A) (A) (A) (A)
                 (A) (A) (A) (A) (A) (A) (A) (A) (A) (A) (A) (A)
                 (A) (A) (A) (A) (A) (A) (A) (A) (A) (A) (A) (A)
                 (A) (A) (A) (A) (A) (A) (A) (A) (A) (A) (A) (A)
                 (A) (A) (A) (A) (A) (A) (A) (A) (A) (A) (A) (A)
                 (A) (A) (A) (A) (A) (A) (A) (A) (A) (A) (A) (A)
                 (A) (A) (A) (A) (A) (A) (A) (A) (A) (A) (A) (A)
                 (A) (A) (A) (A) (A) (A) (A) (A) (A) (A) (A) (A)
                 (A) (A) (A) (A) (A) (A) (A) (A) (A) (A) (A) (A)
                 (A) (A) (A) (A) (A) (A) (A) (A) (A) (A) (A) (A)
                 (A) (A) (A) (A) (A) (A) (A) (A) (A) (A) (A) (A)
                 (A) (A) (A) (A) (A) (A) (A) (A) (A) (A) (A) (A)
                 (A) (A) (A) (A) (A) (A) (A) (A) (A) (A) (A) (A)
                 (A) (A) (A) (A) (A) (A) (A) (A) (A) (A) (A) (A)
                 (A) (A) (A) (A) (A) (A) (A) (A) (A) (A) (A) (A)
                 (A) (A) (A) (A) (A) (A) (A) (A) (A) (A) (A) (A)
                 (A)
 The electronic state is 1-A.
 Alpha  occ. eigenvalues --  -19.15127 -19.13491 -19.12684 -10.28371 -10.27260
 Alpha  occ. eigenvalues --  -10.25655 -10.24294 -10.22290 -10.20999 -10.20152
 Alpha  occ. eigenvalues --  -10.19931 -10.19581 -10.19424 -10.19399  -1.06883
 Alpha  occ. eigenvalues --   -1.04598  -1.03114  -0.85664  -0.79778  -0.79144
 Alpha  occ. eigenvalues --   -0.76308  -0.72418  -0.64539  -0.63940  -0.62603
 Alpha  occ. eigenvalues --   -0.57629  -0.54701  -0.53994  -0.51683  -0.50368
 Alpha  occ. eigenvalues --   -0.48526  -0.47355  -0.46690  -0.45211  -0.43785
 Alpha  occ. eigenvalues --   -0.42693  -0.42391  -0.41142  -0.40994  -0.38811
 Alpha  occ. eigenvalues --   -0.38640  -0.37493  -0.36657  -0.36409  -0.35441
 Alpha  occ. eigenvalues --   -0.34733  -0.33656  -0.29877  -0.27457  -0.26074
 Alpha  occ. eigenvalues --   -0.24280
 Alpha virt. eigenvalues --   -0.06803  -0.02302   0.03994   0.05107   0.06387
 Alpha virt. eigenvalues --    0.08429   0.09254   0.10787   0.11286   0.12337
 Alpha virt. eigenvalues --    0.12391   0.13820   0.14555   0.14919   0.16623
 Alpha virt. eigenvalues --    0.16864   0.16963   0.19471   0.20255   0.21814
 Alpha virt. eigenvalues --    0.22463   0.23869   0.24602   0.25603   0.26604
 Alpha virt. eigenvalues --    0.28485   0.30190   0.33396   0.34097   0.36070
 Alpha virt. eigenvalues --    0.38218   0.40735   0.42770   0.44150   0.45070
 Alpha virt. eigenvalues --    0.46175   0.48745   0.49745   0.51192   0.51497
 Alpha virt. eigenvalues --    0.53209   0.54653   0.55199   0.56693   0.57737
 Alpha virt. eigenvalues --    0.57899   0.58985   0.60205   0.60327   0.60900
 Alpha virt. eigenvalues --    0.62211   0.63384   0.64101   0.64222   0.64979
 Alpha virt. eigenvalues --    0.65392   0.65849   0.66711   0.67330   0.67505
 Alpha virt. eigenvalues --    0.67901   0.68259   0.68886   0.70035   0.70544
 Alpha virt. eigenvalues --    0.71053   0.72873   0.73436   0.75276   0.75360
 Alpha virt. eigenvalues --    0.77418   0.80103   0.83180   0.83710   0.85542
 Alpha virt. eigenvalues --    0.85835   0.88596   0.89475   0.95362   0.96589
 Alpha virt. eigenvalues --    0.97646   0.99177   1.02869   1.05361   1.08429
 Alpha virt. eigenvalues --    1.10422   1.13288   1.16065   1.18292   1.18706
 Alpha virt. eigenvalues --    1.20291   1.21017   1.26249   1.26499   1.29398
 Alpha virt. eigenvalues --    1.32890   1.34472   1.37197   1.38218   1.40953
 Alpha virt. eigenvalues --    1.42020   1.44791   1.48650   1.49726   1.52816
 Alpha virt. eigenvalues --    1.53246   1.55726   1.56238   1.58993   1.61068
 Alpha virt. eigenvalues --    1.64173   1.66754   1.67889   1.69383   1.69936
 Alpha virt. eigenvalues --    1.71730   1.73845   1.74563   1.74897   1.76056
 Alpha virt. eigenvalues --    1.77372   1.78050   1.78304   1.79089   1.80115
 Alpha virt. eigenvalues --    1.81809   1.82976   1.84617   1.85137   1.85939
 Alpha virt. eigenvalues --    1.87555   1.87911   1.88872   1.91096   1.91700
 Alpha virt. eigenvalues --    1.92696   1.93524   1.95867   1.97152   1.98704
 Alpha virt. eigenvalues --    1.99667   2.00739   2.02425   2.04068   2.08477
 Alpha virt. eigenvalues --    2.09515   2.10171   2.13909   2.14649   2.16046
 Alpha virt. eigenvalues --    2.19194   2.20325   2.22896   2.24726   2.25672
 Alpha virt. eigenvalues --    2.27030   2.31413   2.32174   2.33579   2.34561
 Alpha virt. eigenvalues --    2.37470   2.39150   2.41021   2.43233   2.45306
 Alpha virt. eigenvalues --    2.47260   2.51510   2.52200   2.54836   2.59228
 Alpha virt. eigenvalues --    2.59396   2.62402   2.63416   2.65034   2.67224
 Alpha virt. eigenvalues --    2.69970   2.70893   2.72887   2.75420   2.75963
 Alpha virt. eigenvalues --    2.78526   2.82125   2.83231   2.87151   2.89825
 Alpha virt. eigenvalues --    2.91269   2.92909   2.93223   2.96814   3.00326
 Alpha virt. eigenvalues --    3.02711   3.04068   3.05966   3.06523   3.08190
 Alpha virt. eigenvalues --    3.14056   3.16106   3.18035   3.22780   3.31625
 Alpha virt. eigenvalues --    3.37922   3.40674   3.58788   3.61765   3.63729
          Condensed to atoms (all electrons):
               1          2          3          4          5          6
     1  O    7.671282   0.721144  -0.095043   0.006580  -0.000088   0.000002
     2  C    0.721144   4.856379   0.211744   0.079006   0.008150  -0.000383
     3  C   -0.095043   0.211744   5.443176   0.243745  -0.052163   0.001678
     4  C    0.006580   0.079006   0.243745   5.600248   0.323491  -0.028439
     5  C   -0.000088   0.008150  -0.052163   0.323491   4.629320   0.392542
     6  C    0.000002  -0.000383   0.001678  -0.028439   0.392542   4.675622
     7  C   -0.000001  -0.000358   0.002713  -0.018837  -0.076886   0.360478
     8  C    0.000049   0.005805   0.004575   0.004041  -0.010194  -0.040458
     9  O    0.000004   0.000858   0.001636  -0.007845   0.001190   0.003702
    10  C   -0.000132  -0.033068  -0.007673   0.008594  -0.016569   0.024145
    11  C    0.001252  -0.044162   0.019893  -0.056813  -0.000207  -0.000914
    12  C   -0.087421   0.213832  -0.160245   0.007981  -0.001283   0.000438
    13  O    0.001497  -0.025915  -0.003670  -0.050470   0.005113  -0.000334
    14  C    0.000779  -0.038092   0.010893   0.156758  -0.051210   0.000106
    15  H    0.005647  -0.050903   0.414728  -0.062685  -0.020510   0.000378
    16  H   -0.000006   0.000350  -0.018182  -0.007003   0.357238  -0.023567
    17  H    0.000002  -0.000596   0.001670   0.007010   0.328664  -0.003131
    18  H    0.000000   0.000064  -0.000509  -0.030871  -0.000190   0.342081
    19  H   -0.000000   0.000023  -0.000195   0.009961  -0.011785   0.346712
    20  H   -0.000000  -0.000007   0.000109   0.000211   0.008327   0.001541
    21  H    0.000000   0.000066  -0.000844  -0.004993   0.002775  -0.016047
    22  H   -0.000009   0.000129   0.000583   0.002689   0.001472  -0.005568
    23  H    0.002958   0.003762  -0.001475   0.000839   0.000152  -0.000256
    24  H   -0.000222   0.006881  -0.001371   0.001320  -0.000056   0.000043
    25  H    0.008675  -0.017846   0.012217   0.000961   0.000120  -0.000012
    26  H    0.000014   0.000996   0.007482  -0.025200  -0.007320  -0.002046
               7          8          9         10         11         12
     1  O   -0.000001   0.000049   0.000004  -0.000132   0.001252  -0.087421
     2  C   -0.000358   0.005805   0.000858  -0.033068  -0.044162   0.213832
     3  C    0.002713   0.004575   0.001636  -0.007673   0.019893  -0.160245
     4  C   -0.018837   0.004041  -0.007845   0.008594  -0.056813   0.007981
     5  C   -0.076886  -0.010194   0.001190  -0.016569  -0.000207  -0.001283
     6  C    0.360478  -0.040458   0.003702   0.024145  -0.000914   0.000438
     7  C    4.907234   0.348706  -0.089826  -0.212446   0.013376  -0.000439
     8  C    0.348706   4.884932   0.735380   0.054564   0.007743  -0.012020
     9  O   -0.089826   0.735380   7.660296  -0.142166   0.007058  -0.002292
    10  C   -0.212446   0.054564  -0.142166   5.916127   0.233643  -0.021745
    11  C    0.013376   0.007743   0.007058   0.233643   4.683317   0.342805
    12  C   -0.000439  -0.012020  -0.002292  -0.021745   0.342805   5.114712
    13  O    0.000113   0.003163  -0.000027  -0.067313  -0.057055   0.251256
    14  C    0.011091   0.003807   0.006919   0.135913  -0.013771  -0.070572
    15  H    0.000043   0.000283   0.000184  -0.001827  -0.000510   0.016518
    16  H    0.000014  -0.004856  -0.000056  -0.001730   0.000129  -0.000205
    17  H    0.009146  -0.000123  -0.000017   0.001669  -0.000101   0.000273
    18  H   -0.002803  -0.014968  -0.000118  -0.003291   0.000239  -0.000146
    19  H   -0.002589   0.007941  -0.000157  -0.000311   0.000011  -0.000007
    20  H    0.314684   0.007514   0.001238   0.004091  -0.000041  -0.000036
    21  H    0.311225  -0.001737   0.010841   0.017540  -0.000711   0.000017
    22  H    0.007813   0.010951   0.001921   0.242461   0.021011  -0.001623
    23  H    0.003693  -0.017483   0.031103  -0.008674   0.322251  -0.007371
    24  H   -0.000496   0.006349   0.000556   0.005611   0.320934   0.011073
    25  H    0.000030  -0.000754  -0.000042   0.012374  -0.011764   0.327346
    26  H    0.001827  -0.002551  -0.000170   0.004031   0.007469   0.004830
              13         14         15         16         17         18
     1  O    0.001497   0.000779   0.005647  -0.000006   0.000002   0.000000
     2  C   -0.025915  -0.038092  -0.050903   0.000350  -0.000596   0.000064
     3  C   -0.003670   0.010893   0.414728  -0.018182   0.001670  -0.000509
     4  C   -0.050470   0.156758  -0.062685  -0.007003   0.007010  -0.030871
     5  C    0.005113  -0.051210  -0.020510   0.357238   0.328664  -0.000190
     6  C   -0.000334   0.000106   0.000378  -0.023567  -0.003131   0.342081
     7  C    0.000113   0.011091   0.000043   0.000014   0.009146  -0.002803
     8  C    0.003163   0.003807   0.000283  -0.004856  -0.000123  -0.014968
     9  O   -0.000027   0.006919   0.000184  -0.000056  -0.000017  -0.000118
    10  C   -0.067313   0.135913  -0.001827  -0.001730   0.001669  -0.003291
    11  C   -0.057055  -0.013771  -0.000510   0.000129  -0.000101   0.000239
    12  C    0.251256  -0.070572   0.016518  -0.000205   0.000273  -0.000146
    13  O    7.995625   0.331220  -0.000854  -0.000178   0.000147   0.000032
    14  C    0.331220   4.851394   0.010926   0.013079  -0.009844   0.024467
    15  H   -0.000854   0.010926   0.699508   0.006749   0.000738  -0.000016
    16  H   -0.000178   0.013079   0.006749   0.692281  -0.023172   0.008131
    17  H    0.000147  -0.009844   0.000738  -0.023172   0.660091  -0.009807
    18  H    0.000032   0.024467  -0.000016   0.008131  -0.009807   0.687082
    19  H   -0.000002  -0.000902  -0.000041  -0.009032  -0.004077  -0.019325
    20  H    0.000000  -0.000898   0.000001  -0.000143  -0.000382  -0.010689
    21  H    0.000008  -0.000241  -0.000044   0.003573  -0.000179   0.007713
    22  H    0.001836   0.032388   0.000034   0.000036   0.000016   0.001453
    23  H    0.004141   0.001444  -0.000252  -0.000004  -0.000003   0.000019
    24  H    0.002056  -0.002035   0.000044   0.000000   0.000001  -0.000014
    25  H   -0.017676   0.000490  -0.000551  -0.000003   0.000002   0.000001
    26  H   -0.021543   0.348105  -0.000321  -0.000222   0.003551  -0.002220
              19         20         21         22         23         24
     1  O   -0.000000  -0.000000   0.000000  -0.000009   0.002958  -0.000222
     2  C    0.000023  -0.000007   0.000066   0.000129   0.003762   0.006881
     3  C   -0.000195   0.000109  -0.000844   0.000583  -0.001475  -0.001371
     4  C    0.009961   0.000211  -0.004993   0.002689   0.000839   0.001320
     5  C   -0.011785   0.008327   0.002775   0.001472   0.000152  -0.000056
     6  C    0.346712   0.001541  -0.016047  -0.005568  -0.000256   0.000043
     7  C   -0.002589   0.314684   0.311225   0.007813   0.003693  -0.000496
     8  C    0.007941   0.007514  -0.001737   0.010951  -0.017483   0.006349
     9  O   -0.000157   0.001238   0.010841   0.001921   0.031103   0.000556
    10  C   -0.000311   0.004091   0.017540   0.242461  -0.008674   0.005611
    11  C    0.000011  -0.000041  -0.000711   0.021011   0.322251   0.320934
    12  C   -0.000007  -0.000036   0.000017  -0.001623  -0.007371   0.011073
    13  O   -0.000002   0.000000   0.000008   0.001836   0.004141   0.002056
    14  C   -0.000902  -0.000898  -0.000241   0.032388   0.001444  -0.002035
    15  H   -0.000041   0.000001  -0.000044   0.000034  -0.000252   0.000044
    16  H   -0.009032  -0.000143   0.003573   0.000036  -0.000004   0.000000
    17  H   -0.004077  -0.000382  -0.000179   0.000016  -0.000003   0.000001
    18  H   -0.019325  -0.010689   0.007713   0.001453   0.000019  -0.000014
    19  H    0.675966  -0.003576  -0.013373   0.000035   0.000006  -0.000000
    20  H   -0.003576   0.644090  -0.010324  -0.000065  -0.000170   0.000021
    21  H   -0.013373  -0.010324   0.684064  -0.000347  -0.000132   0.000013
    22  H    0.000035  -0.000065  -0.000347   0.668129   0.004155  -0.015389
    23  H    0.000006  -0.000170  -0.000132   0.004155   0.668297  -0.022222
    24  H   -0.000000   0.000021   0.000013  -0.015389  -0.022222   0.682773
    25  H    0.000000  -0.000000  -0.000001  -0.000092   0.004106  -0.017128
    26  H   -0.000084   0.000016  -0.000035  -0.014238  -0.000555  -0.000022
              25         26
     1  O    0.008675   0.000014
     2  C   -0.017846   0.000996
     3  C    0.012217   0.007482
     4  C    0.000961  -0.025200
     5  C    0.000120  -0.007320
     6  C   -0.000012  -0.002046
     7  C    0.000030   0.001827
     8  C   -0.000754  -0.002551
     9  O   -0.000042  -0.000170
    10  C    0.012374   0.004031
    11  C   -0.011764   0.007469
    12  C    0.327346   0.004830
    13  O   -0.017676  -0.021543
    14  C    0.000490   0.348105
    15  H   -0.000551  -0.000321
    16  H   -0.000003  -0.000222
    17  H    0.000002   0.003551
    18  H    0.000001  -0.002220
    19  H    0.000000  -0.000084
    20  H   -0.000000   0.000016
    21  H   -0.000001  -0.000035
    22  H   -0.000092  -0.014238
    23  H    0.004106  -0.000555
    24  H   -0.017128  -0.000022
    25  H    0.692702  -0.000434
    26  H   -0.000434   0.685925
 Mulliken charges:
               1
     1  O   -0.236963
     2  C    0.102141
     3  C   -0.035472
     4  C   -0.160279
     5  C    0.189907
     6  C   -0.028314
     7  C    0.112495
     8  C    0.019341
     9  O   -0.220169
    10  C   -0.143819
    11  C    0.204917
    12  C    0.074324
    13  O   -0.351169
    14  C    0.247786
    15  H   -0.017269
    16  H    0.006780
    17  H    0.038453
    18  H    0.023685
    19  H    0.024801
    20  H    0.044490
    21  H    0.011171
    22  H    0.040219
    23  H    0.011669
    24  H    0.021282
    25  H    0.007280
    26  H    0.012715
 Sum of Mulliken charges =  -0.00000
 Mulliken charges with hydrogens summed into heavy atoms:
               1
     1  O   -0.236963
     2  C    0.102141
     3  C   -0.052740
     4  C   -0.160279
     5  C    0.235140
     6  C    0.020171
     7  C    0.168156
     8  C    0.019341
     9  O   -0.220169
    10  C   -0.103600
    11  C    0.237868
    12  C    0.081604
    13  O   -0.351169
    14  C    0.260501
 APT charges:
               1
     1  O    0.690170
     2  C   -0.856414
     3  C   -0.566404
     4  C   -0.236318
     5  C   -0.487570
     6  C   -0.681373
     7  C   -0.526884
     8  C   -0.788517
     9  O    0.224187
    10  C   -0.393137
    11  C   -0.462190
    12  C   -0.471224
    13  O   -0.125472
    14  C   -0.469609
    15  H    0.408857
    16  H    0.325581
    17  H    0.487897
    18  H    0.196390
    19  H    0.662240
    20  H    0.517062
    21  H    0.356187
    22  H    0.457583
    23  H    0.195700
    24  H    0.523632
    25  H    0.583151
    26  H    0.436475
 Sum of APT charges =  -0.00000
 APT charges with hydrogens summed into heavy atoms:
               1
     1  O    0.690170
     2  C   -0.856414
     3  C   -0.157547
     4  C   -0.236318
     5  C    0.325908
     6  C    0.177257
     7  C    0.346365
     8  C   -0.788517
     9  O    0.224187
    10  C    0.064447
    11  C    0.257142
    12  C    0.111927
    13  O   -0.125472
    14  C   -0.033133
 Electronic spatial extent (au):  <R**2>=           2137.3374
 Charge=             -0.0000 electrons
 Dipole moment (field-independent basis, Debye):
    X=             -6.2990    Y=             -1.0818    Z=              3.9477  Tot=              7.5121
 Quadrupole moment (field-independent basis, Debye-Ang):
   XX=            -82.9674   YY=            -81.7448   ZZ=            -87.0020
   XY=              5.6139   XZ=              3.6906   YZ=              7.2040
 Traceless Quadrupole moment (field-independent basis, Debye-Ang):
   XX=              0.9373   YY=              2.1599   ZZ=             -3.0973
   XY=              5.6139   XZ=              3.6906   YZ=              7.2040
 Octapole moment (field-independent basis, Debye-Ang**2):
  XXX=            -43.2982  YYY=             -6.4499  ZZZ=              5.0393  XYY=             -1.0085
  XXY=              7.9389  XXZ=             23.4966  XZZ=            -15.6521  YZZ=             -2.0322
  YYZ=              9.5783  XYZ=             -2.1245
 Hexadecapole moment (field-independent basis, Debye-Ang**3):
 XXXX=          -1543.5407 YYYY=           -720.3254 ZZZZ=           -542.4555 XXXY=              9.5773
 XXXZ=             81.8829 YYYX=              7.5625 YYYZ=             15.1076 ZZZX=              0.2952
 ZZZY=             10.2553 XXYY=           -355.7141 XXZZ=           -376.6232 YYZZ=           -210.9980
 XXYZ=             -0.6314 YYXZ=            -10.9079 ZZXY=             15.3364
 N-N= 9.563984438360D+02 E-N=-3.430026635105D+03  KE= 6.455404240292D+02
  Exact polarizability:   0.000   0.000   0.000   0.000   0.000   0.000
 Approx polarizability: 200.753  12.647 145.095 -33.760  -5.316 173.166
 No NMR shielding tensors so no spin-rotation constants.
 Leave Link  601 at Tue Jan 20 11:17:27 2026, MaxMem=  4294967296 cpu:               1.8 elap:               0.1
 (Enter /root/g16/l701.exe)
 ... and contract with generalized density number  0.
 Compute integral second derivatives.
 R6Disp: Adding Grimme-D3(BJ) dispersion energy 2nd derivatives to the Hessian.
   1 Symmetry operations used in ECPInt.
 ECPInt:  NShTT=    7260 NPrTT=   26324 LenC2=    7150 LenP2D=   19996.
 LDataN:  DoStor=T MaxTD1= 6 Len=  172
 D2PCM: PCM CHGder 2nd derivatives, FixD1E=F FixD2E=F DoIter=F DoCFld=F I1PDM=0
 GePol: Maximum number of non-zero 2nd derivatives   =     222
 Leave Link  701 at Tue Jan 20 11:17:30 2026, MaxMem=  4294967296 cpu:              40.3 elap:               2.5
 (Enter /root/g16/l702.exe)
 L702 exits ... SP integral derivatives will be done elsewhere.
 Leave Link  702 at Tue Jan 20 11:17:30 2026, MaxMem=  4294967296 cpu:               0.1 elap:               0.0
 (Enter /root/g16/l703.exe)
 Integral derivatives from FoFJK, PRISM(SPDF).
 Compute integral second derivatives, UseDBF=F ICtDFT=           0.
 Calling FoFJK, ICntrl=    100147 FMM=F ISym2X=0 I1Cent= 0 IOpClX= 0 NMat=1 NMatS=1 NMatT=0.
 FoFJK:  IHMeth= 1 ICntrl=  100147 DoSepK=F KAlg= 0 I1Cent=           0 FoldK=F
 IRaf=         0 NMat=       1 IRICut=       1 DoRegI=T DoRafI=F ISym2E= 0 IDoP0=0 IntGTp=1.
 FoFCou: FMM=F IPFlag=           0 FMFlag=      100000 FMFlg1=         800
         NFxFlg=           0 DoJE=F BraDBF=F KetDBF=F FulRan=T
         wScrn=  0.000000 ICntrl=    100147 IOpCl=  0 I1Cent=           0 NGrid=           0
         NMat0=    1 NMatS0=      1 NMatT0=    0 NMatD0=    1 NMtDS0=    0 NMtDT0=    0
 Symmetry not used in FoFCou.
 Leave Link  703 at Tue Jan 20 11:18:06 2026, MaxMem=  4294967296 cpu:             587.5 elap:              36.7
 (Enter /root/g16/l716.exe)
 Dipole        =-2.47821386D+00-4.25630566D-01 1.55313669D+00
 Polarizability= 0.00000000D+00 0.00000000D+00 0.00000000D+00
                 0.00000000D+00 0.00000000D+00 0.00000000D+00
 ***** Axes restored to original set *****
 -------------------------------------------------------------------
 Center     Atomic                   Forces (Hartrees/Bohr)
 Number     Number              X              Y              Z
 -------------------------------------------------------------------
      1        8           0.005082224   -0.000983718    0.005481722
      2        6           0.002013262   -0.000423797   -0.007177066
      3        6           0.004389336    0.003001493    0.002787983
      4        6          -0.000602507    0.008033032   -0.009136849
      5        6          -0.001246826   -0.004759031   -0.000929904
      6        6           0.003774372   -0.001159952    0.007247639
      7        6          -0.000645599    0.004571350   -0.000134403
      8        6          -0.005282746   -0.004346666   -0.006008772
      9        8           0.001716619   -0.003869736    0.008844961
     10        6           0.003462322   -0.002764079    0.003842743
     11        6           0.002451280    0.004581007   -0.000843502
     12        6           0.001852078   -0.006298036    0.003154365
     13        8           0.001976516    0.001459829   -0.002788509
     14        6          -0.001190319    0.001934927   -0.001582606
     15        1          -0.001923466    0.004867511    0.007982988
     16        1          -0.001113618    0.003651928    0.005352339
     17        1           0.000077860    0.005866048   -0.004202627
     18        1          -0.000921032   -0.000365003   -0.007009414
     19        1          -0.005790073    0.002231031   -0.001675253
     20        1          -0.004166267   -0.005116908   -0.002113765
     21        1          -0.001630689   -0.000504395    0.004914238
     22        1          -0.003618184   -0.002727727   -0.004284019
     23        1          -0.000589262   -0.003321765    0.003939985
     24        1           0.001801310   -0.004529642   -0.003934060
     25        1           0.004921567   -0.000376302    0.000663789
     26        1          -0.004798159    0.001348604   -0.002392005
 -------------------------------------------------------------------
 Cartesian Forces:  Max     0.009136849 RMS     0.003988011
 FormGI is forming the generalized inverse of G from B-inverse, IUseBI=4.
 Leave Link  716 at Tue Jan 20 11:18:06 2026, MaxMem=  4294967296 cpu:               0.2 elap:               0.0
 (Enter /root/g16/l103.exe)

 GradGradGradGradGradGradGradGradGradGradGradGradGradGradGradGradGradGrad
 Berny optimization.
 Red2BG is reusing G-inverse.
 Internal  Forces:  Max     0.012582320 RMS     0.003091506
 Search for a local minimum.
 Step number   1 out of a maximum of  156
 All quantities printed in internal units (Hartrees-Bohrs-Radians)
[...]
 46782,0.03057296,0.00119507,-0.00082617,-0.00032626,0.00135654,-0.0008
 3654,0.00035291,-0.00007477,0.00013042,-0.00001396,0.00008433,-0.00025
 899,-0.00005744,0.00001367,0.00000463,0.00001055,0.00000884,-0.0001410
 1,0.00005701,-0.00014753,0.00020917,0.00014639,0.00040288,-0.00041294,
 -0.00029094,-0.00006819,-0.00011059,0.00004162,0.00092645,0.00033805,-
 0.00025878,0.00067201,0.00018324,0.00038291,-0.00131986,0.00058282,0.0
 0064208,0.27652834,-0.00049791,0.00014091,-0.00006523,0.00069879,-0.00
 024938,-0.00058403,-0.00109626,0.00131600,0.00001369,-0.00262203,-0.00
 346331,-0.00113034,-0.02150283,0.00886914,0.00330157,0.10809077,-0.099
 44643,-0.01543445,0.02443716,-0.01419983,-0.00336690,-0.00476481,-0.00
 181294,0.00221098,0.00257885,-0.00148627,0.00174320,0.00022161,0.00039
 256,-0.00002155,-0.00005296,0.00006391,-0.00010571,-0.00003258,-0.0001
 0163,-0.00002215,0.00020150,0.00028605,0.00015236,-0.00006263,-0.00057
 854,-0.00040662,-0.00005605,-0.00012455,0.00006067,0.00053819,0.000866
 67,0.00010850,0.00067018,0.00087607,0.00028698,0.00595800,-0.00340874,
 -0.00092595,-0.11246708,0.11012509,-0.00016323,0.00003787,0.00002887,0
 .00031198,-0.00000612,-0.00026938,-0.00030781,0.00047572,0.00004440,-0
 .00102735,-0.00197108,-0.00002014,-0.00952662,0.00282579,0.00019467,0.
 03285623,-0.01639374,-0.04938455,-0.01775985,0.01116891,0.00095873,0.0
 0251945,0.00232536,-0.00096550,-0.00157797,0.00078459,-0.00110909,-0.0
 0032248,-0.00005797,-0.00022077,-0.00008197,-0.00008910,0.00015304,0.0
 0003287,0.00010206,-0.00013539,0.00031852,-0.00018197,0.00049277,-0.00
 003831,0.00039583,-0.00068710,-0.00003120,-0.00005452,0.00005019,-0.00
 005314,0.00061943,0.00051084,0.00051250,0.00000725,0.00003464,0.026792
 34,-0.01343335,-0.00348952,-0.03223638,0.01463397,0.05213995,-0.000075
 98,0.00003178,-0.00004618,0.00014762,-0.00007233,0.00002201,0.00002710
 ,0.00003394,0.00007333,0.00019126,0.00018345,0.00005243,0.00084677,0.0
 0030435,0.00005343,0.00098365,0.00105189,0.00118361,-0.16200283,-0.115
 61051,-0.06908964,-0.02089071,-0.01861502,-0.01327930,0.00101676,0.003
 23993,0.00185034,0.00110551,0.00256155,0.00135792,-0.00008965,0.000451
 61,0.00014531,0.00012097,0.00005853,-0.00001316,0.00008541,0.00005265,
 0.00000799,0.00048864,-0.00009545,-0.00059254,-0.00000736,-0.00000413,
 -0.00000884,-0.00009188,-0.00010089,-0.00006505,0.00003850,-0.00005615
 ,-0.00017859,0.00027473,-0.00009797,0.00001575,0.00038589,-0.00010121,
 0.00030383,0.17141288,-0.00017901,0.00006803,-0.00008028,0.00025412,-0
 .00018976,-0.00004859,-0.00037626,0.00032148,-0.00013016,0.00131795,-0
 .00036220,0.00012614,0.00105310,-0.00339266,0.00421495,-0.01861338,-0.
 01728511,-0.00984541,-0.10724738,-0.14671749,-0.06424371,0.00914005,0.
 01146350,0.00767301,0.00020899,-0.00290034,0.00022593,-0.00109556,-0.0
 0139374,-0.00153263,-0.00000238,-0.00015859,0.00009183,-0.00004010,-0.
 00007628,0.00001653,-0.00010556,0.00010254,0.00005741,-0.00013896,-0.0
 0010946,0.00017919,0.00000483,-0.00001073,0.00000734,0.00016258,0.0002
 3135,-0.00004009,-0.00129722,-0.00100748,-0.00015276,-0.00006491,0.001
 44165,-0.00000783,0.00029513,0.00057394,-0.00060696,0.12021688,0.16349
 302,0.00005588,-0.00001742,0.00002998,-0.00006857,0.00005284,0.0000121
 7,0.00009317,-0.00013166,0.00008965,-0.00063527,0.00008022,-0.00027664
 ,-0.00019966,0.00293430,-0.00141668,0.01382184,0.01363290,0.00551966,-
 0.06741539,-0.06717240,-0.07896745,-0.00037435,0.00032042,-0.00229924,
 -0.00070504,0.00171577,0.00101583,-0.00052466,-0.00050966,-0.00089434,
 -0.00004259,-0.00009590,0.00005154,-0.00003636,0.00005734,-0.00001870,
 0.00003301,-0.00005056,-0.00002009,0.00003070,0.00007263,0.00023135,0.
 00000627,0.00001589,-0.00000050,0.00007425,0.00024479,0.00008037,0.000
 49091,0.00069210,0.00013399,0.00057047,-0.00029621,0.00114162,-0.00014
 792,-0.00062935,0.00037948,0.07411028,0.06647251,0.08503325,-0.0000204
 3,-0.00004164,-0.00009621,-0.00003273,0.00012791,0.00018555,0.00005744
 ,-0.00002880,-0.00010266,-0.00003176,0.00020435,0.00013754,-0.00005033
 ,0.00031363,0.00034711,-0.00052487,0.00031554,-0.00175248,-0.06309283,
 0.01499022,0.07034218,-0.01460787,0.00942299,0.03034458,0.00308445,-0.
 00394554,-0.00050062,-0.00403782,0.00210574,-0.00273654,-0.00042530,-0
 .00004035,0.00110944,-0.00012499,0.00019474,-0.00004728,-0.00012040,-0
 .00018376,0.00002997,0.00033441,0.00031426,-0.00027928,-0.00000236,-0.
 00000701,-0.00002926,0.00000841,-0.00009901,0.00005503,0.00002435,-0.0
 0002548,-0.00014704,0.00094870,0.00071509,-0.00044673,0.00049444,-0.00
 019773,-0.00055678,0.00675285,-0.00407143,-0.01955736,0.07130358,-0.00
 000525,0.00002632,0.00004707,0.00003660,-0.00010644,-0.00012575,-0.000
 12492,0.00005499,0.00003060,0.00006373,-0.00002532,-0.00009826,0.00038
 857,0.00147487,0.00023352,-0.00714520,0.00549919,0.02720337,0.01591922
 ,-0.05751805,-0.04838725,0.00231895,-0.00303546,-0.01558876,-0.0000532
 6,0.00000522,0.00139726,0.00196971,-0.00045763,0.00143936,0.00018803,0
 .00034005,-0.00047342,0.00013609,-0.00009669,0.00002924,0.00006269,0.0
 0015159,-0.00009481,0.00012463,-0.00025973,0.00022749,-0.00000278,0.00
 000910,0.00000694,-0.00007463,-0.00018246,-0.00042200,0.00023701,0.000
 00280,-0.00023953,-0.00036250,-0.00437013,0.00328352,-0.00008878,0.001
 25828,-0.00050465,0.00640381,-0.00420785,-0.01734309,-0.01994012,0.061
 27195,0.00009826,-0.00001444,0.00007700,-0.00011994,0.00004317,-0.0000
 3867,0.00010498,-0.00013303,0.00006145,-0.00012505,0.00008698,-0.00015
 372,-0.00018494,-0.00058094,0.00070689,0.00275722,-0.00248209,-0.01479
 147,0.07320551,-0.05043142,-0.28403128,-0.00099520,0.00173901,-0.00037
 303,-0.00199072,0.00100428,0.00193283,-0.00007255,0.00012135,0.0005772
 0,-0.00024090,0.00002030,-0.00012180,-0.00005039,0.00002975,-0.0000456
 3,0.00023120,0.00002186,0.00004683,-0.00020755,-0.00009880,-0.00001122
 ,0.00000981,0.00001334,0.00000913,0.00042788,0.00038465,0.00012464,-0.
 00006074,0.00009494,0.00014720,0.00021849,0.00313663,-0.00047960,-0.00
 019350,-0.00001494,0.00076504,0.00352384,-0.00212431,-0.00971013,-0.07
 618357,0.04922199,0.30506833,-0.00010160,-0.00025662,-0.00048948,-0.00
 034088,0.00100892,0.00092017,0.00048615,0.00007111,-0.00001164,0.00033
 839,-0.00032142,0.00034763,0.00001177,-0.00023152,-0.00016689,0.000223
 91,-0.00004735,0.00013268,-0.00202333,-0.00211865,-0.00192575,0.011816
 46,0.01233688,0.01280100,-0.00229380,-0.00299820,0.00152973,-0.0869569
 7,-0.05812851,-0.07331261,-0.01185934,-0.01260678,-0.01706063,-0.00294
 922,0.00147656,-0.00213706,0.00061813,0.00009218,0.00079564,-0.0011891
 3,-0.00171883,-0.00480640,-0.00001565,-0.00011264,0.00002169,0.0000544
 9,-0.00003770,-0.00001249,0.00003400,0.00000024,0.00000282,-0.00004686
 ,0.00004215,-0.00006925,-0.00000113,0.00000503,-0.00000682,-0.00069002
 ,0.00060497,0.00035155,0.00046368,-0.00023676,-0.00015305,0.09551711,-
 0.00090381,0.00038705,-0.00035117,0.00156287,-0.00138587,-0.00004368,-
 0.00101221,0.00003270,-0.00025279,-0.00158217,-0.00303260,0.00312020,-
 0.00021311,0.00015752,-0.00039511,-0.00009062,-0.00016475,-0.00017732,
 -0.00005319,0.00005439,-0.00019867,0.00071256,0.00095601,-0.00008067,-
 0.00066517,-0.00142320,0.00030619,-0.06280500,-0.12070794,-0.11036246,
 0.00822795,0.00755922,0.00957296,0.00090253,-0.00162985,0.00134293,-0.
 00019920,0.00153322,0.00010107,-0.00939370,-0.02074572,-0.01864413,0.0
 0015991,0.00042941,-0.00036616,0.00016133,0.00000464,-0.00004831,-0.00
 001370,0.00003484,0.00004216,0.00008652,-0.00008621,0.00018521,0.00003
 156,0.00009814,0.00009698,0.00010557,0.00012030,-0.00003309,0.00001824
 ,0.00004309,0.00000377,0.06386058,0.13518301,0.00021973,-0.00012399,0.
 00011213,-0.00012578,0.00054876,-0.00008839,0.00054491,-0.00017399,0.0
 0064816,0.00049137,0.00120296,-0.00094425,-0.00002403,-0.00007930,0.00
 015283,-0.00017731,0.00003586,-0.00004162,0.00122157,0.00159303,0.0011
 2559,-0.01144175,-0.01381940,-0.01986905,0.00376950,0.00248499,-0.0005
 0514,-0.08136825,-0.11511103,-0.18608101,-0.00186605,-0.00323982,-0.00
 283973,0.00021120,0.00110918,-0.00021368,-0.00057551,-0.00066727,-0.00
 017135,0.00514711,0.01086938,0.00937836,-0.00004436,-0.00017455,0.0001
 4171,-0.00004883,-0.00000960,0.00002057,0.00004876,-0.00003010,-0.0000
 2113,0.00008561,-0.00015309,-0.00003400,-0.00001200,-0.00001308,-0.000
 03903,0.00064746,-0.00023220,-0.00007391,-0.00010086,0.00030937,0.0000
 6933,0.08307576,0.11551263,0.19737333,-0.00021091,0.00051796,-0.000170
 12,0.00143837,-0.00023218,0.00035742,-0.00034945,0.00007515,0.00010593
 ,0.00022077,-0.00001887,-0.00025347,0.00005568,-0.00000959,-0.00000824
 ,0.00023664,0.00003420,-0.00020519,0.00053110,-0.00043383,0.00029020,-
 0.00046778,0.00175710,-0.00261014,-0.00028790,-0.00103864,0.00212488,0
 .00064115,0.00914655,-0.02486754,-0.04348660,-0.00064744,-0.00151190,0
 .00165451,-0.00230642,0.01684610,-0.00063214,-0.00454121,0.00179770,-0
 .00408914,0.00088608,-0.00097305,-0.00001226,-0.00009146,0.00009374,-0
 .00000749,0.00000036,0.00001290,-0.00003397,-0.00002840,-0.00000068,0.
 00002086,-0.00001394,0.00007079,-0.00000567,-0.00011935,0.00009604,0.0
 0010355,-0.00005902,0.00005315,-0.00001440,-0.00003017,0.00000717,-0.0
 0224536,0.00104882,-0.00046568,0.04713318,-0.00023527,0.00048337,-0.00
 065125,0.00086916,-0.00041871,0.00167420,-0.00055744,-0.00008873,-0.00
 021238,0.00020526,0.00033097,0.00061120,-0.00004859,0.00001907,-0.0001
 4200,-0.00004891,0.00001668,0.00005746,0.00003567,0.00024796,0.0001866
 3,0.00032153,-0.00011460,0.00247459,-0.00178740,-0.00021028,-0.0010017
 4,0.00066111,-0.00311472,0.00625048,0.00002278,-0.07645467,0.08118913,
 0.00382595,-0.00446009,0.01868123,0.00050389,-0.00656273,0.00394110,-0
 .00150953,-0.00137939,0.00146243,-0.00002778,0.00000668,0.00000369,0.0
 0002628,-0.00002156,-0.00000799,-0.00003913,0.00001962,-0.00000491,-0.
 00002458,0.00000598,-0.00002994,-0.00001018,0.00002538,-0.00003529,0.0
 0002964,-0.00000978,-0.00000309,-0.00005050,0.00003588,-0.00002245,0.0
 0004803,-0.00025800,0.00019238,-0.00122099,0.08301180,0.00044163,-0.00
 022512,0.00048125,-0.00063047,-0.00038464,-0.00040756,0.00009085,-0.00
 013250,0.00015459,-0.00006639,-0.00004027,-0.00012910,0.00000855,-0.00
 004024,0.00000888,-0.00015785,-0.00001828,0.00010000,-0.00005611,0.000
 19615,0.00000953,0.00161556,0.00134515,-0.00278731,0.00408451,-0.00205
 751,-0.00043961,-0.00361590,0.00165333,-0.00320060,-0.00349347,0.08604
 702,-0.29628787,0.00022637,0.00005725,0.00141946,-0.00015365,-0.000828
 51,0.00136793,0.00026853,-0.00062668,-0.00051004,0.00000055,0.00003402
 ,-0.00000756,-0.00000404,0.00000549,0.00000308,0.00001629,0.00000366,-
 0.00000599,0.00002621,-0.00001899,0.00000326,0.00000486,0.00006525,-0.
 00002695,-0.00001235,-0.00000121,-0.00003334,-0.00003782,0.00001142,0.
 00005543,-0.00049046,0.00061193,-0.00026702,0.00222023,-0.09269121,0.3
 1510205,-0.00031214,0.00005511,-0.00149386,-0.00196975,-0.00170928,0.0
 0409533,0.00113624,-0.00014770,-0.00045767,-0.00031834,-0.00067468,-0.
 00095245,0.00002762,-0.00024150,0.00016483,0.00003325,-0.00024512,0.00
 005482,-0.00063391,-0.00036004,0.00094408,-0.00276250,0.00283291,-0.00
 263629,0.00022484,-0.00012043,0.00033727,-0.01088172,0.02027007,0.0159
 9278,-0.06360267,0.06006805,0.05059852,0.00199010,-0.02081553,-0.01501
 615,0.00139696,0.00169238,0.00040434,-0.00271300,0.00015493,0.00025563
 ,0.00023844,-0.00005128,-0.00009535,-0.00001372,0.00001237,0.00002019,
 0.00010495,-0.00002401,0.00000173,0.00004548,0.00001450,-0.00000302,0.
 00000683,0.00007695,-0.00000109,-0.00013240,0.00004243,0.00000686,-0.0
 0034029,0.00011768,0.00004241,0.00117764,-0.00035366,0.00071923,-0.000
 02740,-0.00040706,-0.00039001,0.07622363,-0.00043737,-0.00006097,-0.00
 188903,-0.00255722,-0.00079505,0.00459556,0.00060643,0.00031623,-0.000
 41516,-0.00023509,0.00029968,0.00015579,0.00000440,-0.00015573,0.00022
 566,-0.00004436,0.00002631,-0.00005629,0.00002240,0.00007318,-0.000282
 03,0.00000832,-0.00062516,0.00155591,-0.00049117,0.00005093,-0.0004875
 1,0.00176309,-0.00416913,-0.00427796,0.06076258,-0.19313538,-0.1244575
 2,0.00382578,-0.02150443,-0.01672683,0.00019733,0.00241899,0.00091426,
 0.00089536,-0.00064582,-0.00002653,0.00013125,-0.00005526,-0.00007701,
 0.00001104,0.00000931,-0.00001266,0.00009108,-0.00000942,-0.00002195,-
 0.00001831,0.00000061,0.00000243,0.00002123,0.00000514,-0.00000787,0.0
 0000466,0.00001402,0.00000551,0.00008086,-0.00002552,-0.00000537,-0.00
 053121,0.00099521,0.00036087,-0.00333323,0.00963128,0.00650925,-0.0610
 8775,0.20598869,0.00032841,-0.00035955,0.00034842,-0.00044159,0.001256
 29,-0.00016544,0.00012190,-0.00041397,0.00027824,-0.00015827,-0.000189
 21,-0.00054391,-0.00001040,0.00001163,-0.00000842,0.00006487,-0.000078
 83,0.00000528,-0.00026352,-0.00023506,0.00014334,-0.00094592,0.0014279
 7,-0.00151426,0.00153590,-0.00032451,0.00072774,-0.00520032,0.00842923
 ,0.00558357,0.05100941,-0.12724543,-0.15382940,-0.00157116,0.00538731,
 0.00268400,0.00107662,-0.00075935,0.00082350,-0.00111753,0.00070058,-0
 .00010011,0.00003352,0.00003133,-0.00003653,0.00000210,-0.00000951,-0.
 00000110,-0.00000090,-0.00001282,0.00001450,0.00000031,0.00000436,0.00
 000181,0.00001072,-0.00001562,0.00001711,-0.00004621,0.00000297,0.0000
 0637,-0.00004625,-0.00000758,0.00002827,-0.00011134,0.00043603,0.00116
 518,0.00749953,-0.02207030,-0.01461029,-0.05154182,0.13403894,0.158507
 79,0.00181574,-0.00064857,0.00055003,-0.00081771,-0.00054185,-0.001852
 71,0.00046896,-0.00027723,-0.00006185,-0.00007817,-0.00019352,-0.00018
 937,-0.00006135,-0.00007313,0.00017437,-0.00003225,0.00002368,0.000007
 60,-0.00002739,0.00005562,0.00013179,0.00013608,-0.00007865,-0.0006668
 7,-0.00018764,-0.00004494,0.00036711,-0.00078315,-0.00105612,0.0004426
 3,-0.01018577,0.00314584,0.00331417,-0.29217368,0.06385608,0.06277791,
 -0.01197212,0.00354406,-0.00233965,0.00164633,0.00110749,-0.00177779,0
 .00003782,-0.00003331,0.00006983,-0.00006274,0.00003625,0.00003832,0.0
 0001567,-0.00000308,-0.00000698,0.00003048,-0.00000394,0.00003233,-0.0
 0002902,0.00001318,0.00000206,-0.00000476,-0.00000490,-0.00000495,-0.0
 0004534,0.00003381,0.00001243,-0.00033902,0.00005405,-0.00007071,-0.00
 060268,-0.00055132,0.00001756,0.00095661,0.00036958,-0.00028107,0.3128
 2491,-0.00185086,0.00114207,0.00304798,0.02086504,-0.00578624,-0.00745
 058,-0.00086143,-0.00183389,-0.00260654,-0.00022852,0.00043903,-0.0002
 0701,0.00001673,0.00008068,-0.00002124,0.00003602,-0.00010597,0.000069
 99,-0.00009062,0.00005017,0.00035686,-0.00027978,0.00023008,-0.0007824
 6,-0.00016929,-0.00003495,0.00015726,-0.00292142,-0.00303476,0.0011018
 4,-0.02342702,0.00694345,0.00410852,0.06050405,-0.06056748,-0.01605963
 ,0.01747447,-0.00467054,-0.00009667,-0.00110940,-0.00183150,0.00268015
 ,0.00048511,-0.00077095,0.00014957,0.00000188,-0.00002176,-0.00001715,
 0.00002317,-0.00000262,0.00002016,0.00001017,-0.00000367,-0.00004767,0
 .00002370,0.00003049,-0.00003003,0.00001278,0.00000668,-0.00001499,-0.
 00010096,0.00007539,-0.00000156,-0.00066751,0.00022098,-0.00017471,-0.
 00004198,-0.00034238,0.00029009,0.00052248,0.00156124,-0.00007183,-0.0
 6892634,0.06808416,-0.00177741,0.00143604,0.00254429,0.02465547,-0.006
 53466,-0.00402689,-0.00088915,-0.00284866,-0.00306239,-0.00096263,0.00
 003464,-0.00063063,0.00008951,0.00013016,0.00029029,-0.00004290,-0.000
 03363,-0.00008631,0.00002224,0.00002770,-0.00006515,-0.00001724,-0.000
 26529,0.00000461,-0.00000097,0.00005977,0.00007751,-0.00029439,0.00157
 487,-0.00012620,0.00437632,-0.00299618,0.00084736,0.07193500,-0.017831
 90,-0.06701270,-0.03301535,0.00877185,0.00444708,-0.00169638,0.0030547
 2,-0.00438683,0.00079123,-0.00088439,0.00023684,-0.00008580,0.00005719
 ,0.00001556,0.00005620,-0.00003529,-0.00001395,0.00003620,0.00001920,0
 .00008021,0.00001605,0.00002780,0.00005792,0.00000071,0.00000279,0.000
 00417,0.00001678,-0.00001778,0.00000700,0.00029662,-0.00004219,0.00001
 297,-0.00030675,0.00005560,0.00005137,-0.00096627,0.00025943,0.0005064
 4,-0.06087227,0.01588586,0.06984658,0.00000772,-0.00059753,-0.00059278
 ,-0.00069014,0.00130356,0.00085522,0.00098454,0.00109050,0.00090086,0.
 00389047,-0.00267233,0.00143609,-0.00022868,-0.00030960,0.00048786,-0.
 00160664,0.00045869,0.00139538,-0.00000321,-0.00012968,-0.00007415,0.0
 0004349,-0.00042878,0.00025553,-0.00004774,0.00013256,0.00013749,0.006
 08227,-0.00283131,0.00616067,-0.00073787,-0.00138267,0.00098310,-0.004
 85794,-0.00226483,0.00292594,-0.02843266,0.01244732,-0.02584712,-0.113
 59799,0.03184930,-0.11161849,0.00039037,0.00021906,-0.00001674,-0.0000
 1585,-0.00014206,-0.00012289,0.00009287,0.00000096,-0.00002186,-0.0019
 2799,0.00040923,0.00110509,0.00008381,0.00008323,-0.00005481,0.0000035
 1,-0.00000494,0.00001377,-0.00000057,0.00006384,-0.00006111,0.00031057
 ,0.00035304,0.00013891,0.00043735,-0.00003061,0.00008682,0.00014526,-0
 .00005971,0.00005301,-0.00052979,0.00069952,-0.00136482,0.14020485,-0.
 00026052,0.00018643,0.00020130,0.00103839,-0.00010002,-0.00022915,0.00
 149734,-0.00263590,-0.00209901,-0.01186262,0.00558153,-0.02093080,-0.0
 0047395,0.00082199,0.00046886,0.00068511,0.00008285,0.00006898,-0.0001
 8016,0.00001673,0.00027086,0.00122533,-0.00183854,-0.00060435,-0.00054
 019,0.00011102,0.00135443,0.01149805,-0.00563007,0.01968703,-0.0000956
 1,-0.00240179,0.00182085,0.00030970,-0.00047005,0.00065300,0.00128563,
 0.00032428,0.00082593,0.03347694,-0.06122607,0.05201090,-0.00119267,-0
 .00070614,-0.00020487,-0.00023635,-0.00004557,0.00020250,0.00002765,-0
 .00029258,0.00014736,0.00036937,0.00040896,-0.00032965,0.00000295,-0.0
 0005614,-0.00010109,0.00001064,-0.00001504,0.00000020,-0.00007124,0.00
 003656,-0.00001265,0.00046704,0.00162443,-0.00021727,0.00070051,-0.000
 39905,0.00023513,0.00037817,-0.00020896,0.00006694,0.00019727,0.000142
 28,0.00009234,-0.03825676,0.06668885,-0.00066584,0.00034141,-0.0002799
 8,0.00179454,-0.00055128,0.00021624,0.00152854,-0.00229252,-0.00211741
 ,-0.01141000,0.00491457,-0.01741876,-0.00093680,-0.00002948,0.00031473
 ,-0.00066585,0.00009539,-0.00047334,0.00005384,0.00018399,-0.00004936,
 -0.00083598,0.00076489,0.00044390,0.00033969,-0.00018489,-0.00033460,-
 0.00333552,0.00072271,-0.00396307,0.00071209,0.00033245,-0.00019370,0.
 00270418,-0.00052870,0.00054280,0.00696452,-0.00297380,0.01287386,-0.1
 1945747,0.05378612,-0.24490179,-0.00112031,-0.00064618,-0.00009942,-0.
 00001677,0.00001612,0.00016815,0.00039698,-0.00033569,-0.00007641,0.00
 079590,0.00020440,0.00090327,-0.00009854,0.00013094,0.00051978,-0.0000
 1637,-0.00002447,-0.00001841,0.00005256,-0.00013827,0.00007998,0.00047
 858,-0.00033630,0.00098916,-0.00020304,0.00009244,-0.00004359,-0.00008
 403,0.00012011,-0.00003211,0.00018606,-0.00028621,0.00038083,0.1228390
 4,-0.05337775,0.25256924\\-0.00000069,0.00000321,0.00000008,-0.0000004
 6,0.00000223,0.00000047,-0.00000164,0.00000141,-0.00000075,-0.00000010
 ,0.00000015,0.00000021,-0.00000157,-0.00000031,-0.00000148,-0.00000109
 ,-0.00000151,-0.00000052,0.00000015,-0.00000254,0.00000040,-0.00000034
 ,-0.00000190,0.00000011,0.00000085,0.00000044,-0.00000020,0.00000249,0
 .00000112,0.00000192,0.00000130,0.00000018,0.00000036,0.00000062,0.000
 00202,0.00000053,-0.00000022,0.00000098,0.00000010,-0.00000055,-0.0000
 0005,-0.00000029,-0.00000168,0.00000132,-0.00000086,-0.00000191,-0.000
 00090,-0.00000127,-0.00000201,-0.00000148,-0.00000087,-0.00000005,-0.0
 0000219,-0.00000023,-0.00000072,-0.00000276,-0.00000078,0.00000135,-0.
 00000203,0.00000016,0.00000008,-0.00000122,-0.00000061,0.00000175,-0.0
 0000067,0.00000081,0.00000176,0.00000161,0.00000066,0.00000214,0.00000
 138,0.00000131,0.00000041,0.00000241,0.00000071,0.00000013,-0.00000087
 ,0.00000005\\\@


 NEVER LOSE YOUR IGNORANCE, IT CAN'T BE REPLACED.
   -- ANDY CAPP
 Job cpu time:       0 days  0 hours 28 minutes 33.4 seconds.
 Elapsed time:       0 days  0 hours  1 minutes 47.6 seconds.
 File lengths (MBytes):  RWF=    260 Int=      0 D2E=      0 Chk=     19 Scr=      1
 Normal termination of Gaussian 16 at Tue Jan 20 11:21:22 2026.
