          26
 Energy =    -41.88650949 a.u.  #Cluster:    1
O           2.77215254      0.54227474      1.51436006
C           1.92394101      0.51771162      0.64344107
C           0.72921416      1.35821063      0.64171537
C          -0.21949522      1.19097054     -0.29107771
C          -1.53763167      1.89004350     -0.28334178
C          -2.58885615      1.02873200      0.43664665
C          -2.64045318     -0.40565667     -0.11113280
C          -1.39390972     -1.14938601      0.31687889
O          -1.27532075     -1.61892033      1.42241864
C          -0.29831722     -1.24430061     -0.73209458
C           1.06408839     -1.67543237     -0.17393807
C           1.97621921     -0.47074366     -0.51932041
O           1.39203305      0.09130090     -1.67628947
C           0.02300893      0.15145594     -1.35665937
H           0.63752795      2.08727631      1.43360264
H          -1.45171876      2.84565885      0.23480320
H          -1.86369685      2.07372874     -1.30876210
H          -3.56724072      1.49490467      0.31645186
H          -2.35775635      0.98687959      1.50261337
H          -2.74244994     -0.39386209     -1.19545285
H          -3.50127977     -0.91137106      0.33006096
H          -0.64090081     -1.92774557     -1.51339684
H           1.01469053     -1.85235375      0.90051812
H           1.43190877     -2.57415153     -0.66461288
H           3.00644887     -0.75110056     -0.74137351
H          -0.52371216      0.36356726     -2.27592123
