 Entering Gaussian System, Link 0=g16
 Initial command:
 /root/g16/l1.exe "/tmp/gaussian_scratch_3338088/Gau-3338093.inp" -scrdir="/tmp/gaussian_scratch_3338088/"
 Entering Link 1 = /root/g16/l1.exe PID=   3338095.
  
 Copyright (c) 1988,1990,1992,1993,1995,1998,2003,2009,2016,
            Gaussian, Inc.  All Rights Reserved.
  
 This is part of the Gaussian(R) 16 program.  It is based on
 the Gaussian(R) 09 system (copyright 2009, Gaussian, Inc.),
 the Gaussian(R) 03 system (copyright 2003, Gaussian, Inc.),
 the Gaussian(R) 98 system (copyright 1998, Gaussian, Inc.),
 the Gaussian(R) 94 system (copyright 1995, Gaussian, Inc.),
 the Gaussian 92(TM) system (copyright 1992, Gaussian, Inc.),
 the Gaussian 90(TM) system (copyright 1990, Gaussian, Inc.),
 the Gaussian 88(TM) system (copyright 1988, Gaussian, Inc.),
 the Gaussian 86(TM) system (copyright 1986, Carnegie Mellon
 University), and the Gaussian 82(TM) system (copyright 1983,
 Carnegie Mellon University). Gaussian is a federally registered
 trademark of Gaussian, Inc.
  
 This software contains proprietary and confidential information,
 including trade secrets, belonging to Gaussian, Inc.
  
 This software is provided under written license and may be
 used, copied, transmitted, or stored only in accord with that
 written license.
  
 The following legend is applicable only to US Government
 contracts under FAR:
  
                    RESTRICTED RIGHTS LEGEND
  
 Use, reproduction and disclosure by the US Government is
 subject to restrictions as set forth in subparagraphs (a)
 and (c) of the Commercial Computer Software - Restricted
 Rights clause in FAR 52.227-19.
  
 Gaussian, Inc.
 340 Quinnipiac St., Bldg. 40, Wallingford CT 06492
  
  
 ---------------------------------------------------------------
 Warning -- This program may not be used in any manner that
 competes with the business of Gaussian, Inc. or will provide
 assistance to any competitor of Gaussian, Inc.  The licensee
 of this program is prohibited from giving any competitor of
 Gaussian, Inc. access to this program.  By using this program,
 the user acknowledges that Gaussian, Inc. is engaged in the
 business of creating and licensing software in the field of
 computational chemistry and represents and warrants to the
 licensee that it is not a competitor of Gaussian, Inc. and that
 it will not use this program in any manner prohibited above.
 ---------------------------------------------------------------
  

 Cite this work as:
 Gaussian 16, Revision A.03,
 M. J. Frisch, G. W. Trucks, H. B. Schlegel, G. E. Scuseria, 
 M. A. Robb, J. R. Cheeseman, G. Scalmani, V. Barone, 
 G. A. Petersson, H. Nakatsuji, X. Li, M. Caricato, A. V. Marenich, 
 J. Bloino, B. G. Janesko, R. Gomperts, B. Mennucci, H. P. Hratchian, 
 J. V. Ortiz, A. F. Izmaylov, J. L. Sonnenberg, D. Williams-Young, 
 F. Ding, F. Lipparini, F. Egidi, J. Goings, B. Peng, A. Petrone, 
 T. Henderson, D. Ranasinghe, V. G. Zakrzewski, J. Gao, N. Rega, 
 G. Zheng, W. Liang, M. Hada, M. Ehara, K. Toyota, R. Fukuda, 
 J. Hasegawa, M. Ishida, T. Nakajima, Y. Honda, O. Kitao, H. Nakai, 
 T. Vreven, K. Throssell, J. A. Montgomery, Jr., J. E. Peralta, 
 F. Ogliaro, M. J. Bearpark, J. J. Heyd, E. N. Brothers, K. N. Kudin, 
 V. N. Staroverov, T. A. Keith, R. Kobayashi, J. Normand, 
 K. Raghavachari, A. P. Rendell, J. C. Burant, S. S. Iyengar, 
 J. Tomasi, M. Cossi, J. M. Millam, M. Klene, C. Adamo, R. Cammi, 
 J. W. Ochterski, R. L. Martin, K. Morokuma, O. Farkas, 
 J. B. Foresman, and D. J. Fox, Gaussian, Inc., Wallingford CT, 2016.
 
 ******************************************
 Gaussian 16:  ES64L-G16RevA.03 25-Dec-2016
                20-Jan-2026 
 ******************************************
 %chk=conf_002.chk
 %mem=32GB
 %nprocshared=16
 Will use up to   16 processors via shared memory.
 --------------------------------------------------------------------
 #p B3LYP/def2SVP em=GD3BJ SCRF=(PCM,Solvent=Acetone) Opt=CalcFC Freq
 --------------------------------------------------------------------
 1/10=4,18=20,19=15,26=3,38=1/1,3;
 2/9=110,12=2,17=6,18=5,40=1/2;
 3/5=43,7=101,11=2,25=1,30=1,70=2201,71=2,72=19,74=-5,124=41,140=1/1,2,3;
 4//1;
 5/5=2,38=5,53=19/2;
 8/6=4,10=90,11=11/1;
 11/6=1,8=1,9=11,15=111,16=1/1,2,10;
 10/6=1,13=1/2;
 6/7=2,8=2,9=2,10=2,28=1/1;
 7/10=1,18=20,25=1/1,2,3,16;
 1/10=4,18=20,19=15,26=3/3(2);
 2/9=110/2;
 99//99;
 2/9=110/2;
 3/5=43,7=101,11=2,25=1,30=1,70=2205,71=1,72=19,74=-5,124=41/1,2,3;
 4/5=5,16=3,69=1/1;
 5/5=2,38=5,53=19/2;
 7//1,2,3,16;
 1/18=20,19=15,26=3/3(-5);
 2/9=110/2;
 6/7=2,8=2,9=2,10=2,19=2,28=1/1;
 99/9=1/99;
 Leave Link    1 at Tue Jan 20 11:23:23 2026, MaxMem=  4294967296 cpu:               0.5 elap:               0.0
 (Enter /root/g16/l101.exe)
 ----------------
 product_conf_002
 ----------------
 Symbolic Z-matrix:
 Charge =  0 Multiplicity = 1
 O                     3.01943   0.8412    1.31031 
 C                     2.07527   0.70033   0.55827 
 C                     0.8866    1.54776   0.5543 
 C                    -0.13606   1.284    -0.27259 
 C                    -1.44958   1.98471  -0.23261 
 C                    -2.57951   0.95189  -0.11567 
 C                    -2.24278  -0.14453   0.90469 
 C                    -1.5636   -1.35846   0.31387 
 O                    -1.96757  -2.47286   0.55726 
 C                    -0.34271  -1.20491  -0.57599 
 C                     0.96463  -1.4907    0.1975 
 C                     1.95751  -0.4655   -0.42052 
 O                     1.35051  -0.02331  -1.61591 
 C                    -0.00355   0.15026  -1.25027 
 H                     0.85937   2.36653   1.25885 
 H                    -1.47485   2.66812   0.61707 
 H                    -1.58429   2.57031  -1.14512 
 H                    -2.78323   0.494    -1.08448 
 H                    -3.48746   1.46494   0.20117 
 H                    -3.15183  -0.50683   1.38938 
 H                    -1.59164   0.26289   1.68252 
 H                    -0.43622  -1.95206  -1.37081 
 H                     0.85055  -1.32434   1.26954 
 H                     1.30391  -2.51196   0.04419 
 H                     2.93561  -0.88724  -0.6541 
 H                    -0.57226   0.33121  -2.16323 
 
 ITRead=  0  0  0  0  0  0  0  0  0  0  0  0  0  0  0  0  0  0  0  0
 ITRead=  0  0  0  0  0  0
 MicOpt= -1 -1 -1 -1 -1 -1 -1 -1 -1 -1 -1 -1 -1 -1 -1 -1 -1 -1 -1 -1
 MicOpt= -1 -1 -1 -1 -1 -1
 NAtoms=     26 NQM=       26 NQMF=       0 NMMI=      0 NMMIF=      0
                NMic=       0 NMicF=      0.
                    Isotopes and Nuclear Properties:
 (Nuclear quadrupole moments (NQMom) in fm**2, nuclear magnetic moments (NMagM)
  in nuclear magnetons)

  Atom         1           2           3           4           5           6           7           8           9          10
 IAtWgt=          16          12          12          12          12          12          12          12          16          12
 AtmWgt=  15.9949146  12.0000000  12.0000000  12.0000000  12.0000000  12.0000000  12.0000000  12.0000000  15.9949146  12.0000000
 NucSpn=           0           0           0           0           0           0           0           0           0           0
 AtZEff=  -0.0000000  -0.0000000  -0.0000000  -0.0000000  -0.0000000  -0.0000000  -0.0000000  -0.0000000  -0.0000000  -0.0000000
 NQMom=    0.0000000   0.0000000   0.0000000   0.0000000   0.0000000   0.0000000   0.0000000   0.0000000   0.0000000   0.0000000
 NMagM=    0.0000000   0.0000000   0.0000000   0.0000000   0.0000000   0.0000000   0.0000000   0.0000000   0.0000000   0.0000000
 AtZNuc=   8.0000000   6.0000000   6.0000000   6.0000000   6.0000000   6.0000000   6.0000000   6.0000000   8.0000000   6.0000000

  Atom        11          12          13          14          15          16          17          18          19          20
 IAtWgt=          12          12          16          12           1           1           1           1           1           1
 AtmWgt=  12.0000000  12.0000000  15.9949146  12.0000000   1.0078250   1.0078250   1.0078250   1.0078250   1.0078250   1.0078250
 NucSpn=           0           0           0           0           1           1           1           1           1           1
 AtZEff=  -0.0000000  -0.0000000  -0.0000000  -0.0000000  -0.0000000  -0.0000000  -0.0000000  -0.0000000  -0.0000000  -0.0000000
 NQMom=    0.0000000   0.0000000   0.0000000   0.0000000   0.0000000   0.0000000   0.0000000   0.0000000   0.0000000   0.0000000
 NMagM=    0.0000000   0.0000000   0.0000000   0.0000000   2.7928460   2.7928460   2.7928460   2.7928460   2.7928460   2.7928460
 AtZNuc=   6.0000000   6.0000000   8.0000000   6.0000000   1.0000000   1.0000000   1.0000000   1.0000000   1.0000000   1.0000000

  Atom        21          22          23          24          25          26
 IAtWgt=           1           1           1           1           1           1
 AtmWgt=   1.0078250   1.0078250   1.0078250   1.0078250   1.0078250   1.0078250
 NucSpn=           1           1           1           1           1           1
 AtZEff=  -0.0000000  -0.0000000  -0.0000000  -0.0000000  -0.0000000  -0.0000000
 NQMom=    0.0000000   0.0000000   0.0000000   0.0000000   0.0000000   0.0000000
 NMagM=    2.7928460   2.7928460   2.7928460   2.7928460   2.7928460   2.7928460
 AtZNuc=   1.0000000   1.0000000   1.0000000   1.0000000   1.0000000   1.0000000
 Leave Link  101 at Tue Jan 20 11:23:23 2026, MaxMem=  4294967296 cpu:               5.6 elap:               0.4
 (Enter /root/g16/l103.exe)

 GradGradGradGradGradGradGradGradGradGradGradGradGradGradGradGradGradGrad
 Berny optimization.
 Initialization pass.
                           ----------------------------
                           !    Initial Parameters    !
                           ! (Angstroms and Degrees)  !
 --------------------------                            --------------------------
 ! Name  Definition              Value          Derivative Info.                !
 --------------------------------------------------------------------------------
 ! R1    R(1,2)                  1.2152         calculate D2E/DX2 analytically  !
 ! R2    R(2,3)                  1.4598         calculate D2E/DX2 analytically  !
 ! R3    R(2,12)                 1.5268         calculate D2E/DX2 analytically  !
 ! R4    R(3,4)                  1.3413         calculate D2E/DX2 analytically  !
 ! R5    R(3,15)                 1.0805         calculate D2E/DX2 analytically  !
 ! R6    R(4,5)                  1.4893         calculate D2E/DX2 analytically  !
 ! R7    R(4,14)                 1.5029         calculate D2E/DX2 analytically  !
 ! R8    R(5,6)                  1.5353         calculate D2E/DX2 analytically  !
 ! R9    R(5,16)                 1.0907         calculate D2E/DX2 analytically  !
 ! R10   R(5,17)                 1.0926         calculate D2E/DX2 analytically  !
 ! R11   R(6,7)                  1.5351         calculate D2E/DX2 analytically  !
 ! R12   R(6,18)                 1.0908         calculate D2E/DX2 analytically  !
 ! R13   R(6,19)                 1.0899         calculate D2E/DX2 analytically  !
 ! R14   R(7,8)                  1.5113         calculate D2E/DX2 analytically  !
 ! R15   R(7,20)                 1.092          calculate D2E/DX2 analytically  !
 ! R16   R(7,21)                 1.0932         calculate D2E/DX2 analytically  !
 ! R17   R(8,9)                  1.2101         calculate D2E/DX2 analytically  !
 ! R18   R(8,10)                 1.5185         calculate D2E/DX2 analytically  !
 ! R19   R(10,11)                1.5457         calculate D2E/DX2 analytically  !
 ! R20   R(10,14)                1.5512         calculate D2E/DX2 analytically  !
 ! R21   R(10,22)                1.0949         calculate D2E/DX2 analytically  !
 ! R22   R(11,12)                1.5553         calculate D2E/DX2 analytically  !
 ! R23   R(11,23)                1.0908         calculate D2E/DX2 analytically  !
 ! R24   R(11,24)                1.087          calculate D2E/DX2 analytically  !
 ! R25   R(12,13)                1.4117         calculate D2E/DX2 analytically  !
 ! R26   R(12,25)                1.0905         calculate D2E/DX2 analytically  !
 ! R27   R(13,14)                1.4133         calculate D2E/DX2 analytically  !
 ! R28   R(14,26)                1.0907         calculate D2E/DX2 analytically  !
 ! A1    A(1,2,3)              124.5419         calculate D2E/DX2 analytically  !
 ! A2    A(1,2,12)             123.0357         calculate D2E/DX2 analytically  !
 ! A3    A(3,2,12)             112.2539         calculate D2E/DX2 analytically  !
 ! A4    A(2,3,4)              120.5529         calculate D2E/DX2 analytically  !
 ! A5    A(2,3,15)             117.2981         calculate D2E/DX2 analytically  !
 ! A6    A(4,3,15)             122.1251         calculate D2E/DX2 analytically  !
 ! A7    A(3,4,5)              124.2896         calculate D2E/DX2 analytically  !
 ! A8    A(3,4,14)             118.8259         calculate D2E/DX2 analytically  !
 ! A9    A(5,4,14)             116.7534         calculate D2E/DX2 analytically  !
 ! A10   A(4,5,6)              109.5507         calculate D2E/DX2 analytically  !
 ! A11   A(4,5,16)             109.6426         calculate D2E/DX2 analytically  !
 ! A12   A(4,5,17)             109.7852         calculate D2E/DX2 analytically  !
 ! A13   A(6,5,16)             110.1892         calculate D2E/DX2 analytically  !
 ! A14   A(6,5,17)             109.4772         calculate D2E/DX2 analytically  !
 ! A15   A(16,5,17)            108.1767         calculate D2E/DX2 analytically  !
 ! A16   A(5,6,7)              111.6947         calculate D2E/DX2 analytically  !
 ! A17   A(5,6,18)             110.6224         calculate D2E/DX2 analytically  !
 ! A18   A(5,6,19)             108.5757         calculate D2E/DX2 analytically  !
 ! A19   A(7,6,18)             109.3601         calculate D2E/DX2 analytically  !
 ! A20   A(7,6,19)             109.0078         calculate D2E/DX2 analytically  !
 ! A21   A(18,6,19)            107.4702         calculate D2E/DX2 analytically  !
 ! A22   A(6,7,8)              114.3573         calculate D2E/DX2 analytically  !
 ! A23   A(6,7,20)             110.4491         calculate D2E/DX2 analytically  !
 ! A24   A(6,7,21)             109.7194         calculate D2E/DX2 analytically  !
 ! A25   A(8,7,20)             106.3271         calculate D2E/DX2 analytically  !
 ! A26   A(8,7,21)             108.0494         calculate D2E/DX2 analytically  !
 ! A27   A(20,7,21)            107.6782         calculate D2E/DX2 analytically  !
 ! A28   A(7,8,9)              120.7348         calculate D2E/DX2 analytically  !
 ! A29   A(7,8,10)             120.6093         calculate D2E/DX2 analytically  !
 ! A30   A(9,8,10)             118.6451         calculate D2E/DX2 analytically  !
 ! A31   A(8,10,11)            111.5966         calculate D2E/DX2 analytically  !
 ! A32   A(8,10,14)            121.2552         calculate D2E/DX2 analytically  !
 ! A33   A(8,10,22)            106.7227         calculate D2E/DX2 analytically  !
 ! A34   A(11,10,14)           101.1937         calculate D2E/DX2 analytically  !
 ! A35   A(11,10,22)           108.0201         calculate D2E/DX2 analytically  !
 ! A36   A(14,10,22)           107.415          calculate D2E/DX2 analytically  !
 ! A37   A(10,11,12)           102.6637         calculate D2E/DX2 analytically  !
 ! A38   A(10,11,23)           112.033          calculate D2E/DX2 analytically  !
 ! A39   A(10,11,24)           111.5381         calculate D2E/DX2 analytically  !
 ! A40   A(12,11,23)           110.9016         calculate D2E/DX2 analytically  !
 ! A41   A(12,11,24)           111.3466         calculate D2E/DX2 analytically  !
 ! A42   A(23,11,24)           108.3328         calculate D2E/DX2 analytically  !
 ! A43   A(2,12,11)            107.3274         calculate D2E/DX2 analytically  !
 ! A44   A(2,12,13)            109.6842         calculate D2E/DX2 analytically  !
 ! A45   A(2,12,25)            111.3127         calculate D2E/DX2 analytically  !
 ! A46   A(11,12,13)           105.573          calculate D2E/DX2 analytically  !
 ! A47   A(11,12,25)           113.7533         calculate D2E/DX2 analytically  !
 ! A48   A(13,12,25)           108.9921         calculate D2E/DX2 analytically  !
 ! A49   A(12,13,14)           103.3772         calculate D2E/DX2 analytically  !
 ! A50   A(4,14,10)            110.915          calculate D2E/DX2 analytically  !
 ! A51   A(4,14,13)            110.207          calculate D2E/DX2 analytically  !
 ! A52   A(4,14,26)            111.9243         calculate D2E/DX2 analytically  !
 ! A53   A(10,14,13)           102.3955         calculate D2E/DX2 analytically  !
 ! A54   A(10,14,26)           113.2521         calculate D2E/DX2 analytically  !
 ! A55   A(13,14,26)           107.6615         calculate D2E/DX2 analytically  !
 ! D1    D(1,2,3,4)           -177.0439         calculate D2E/DX2 analytically  !
 ! D2    D(1,2,3,15)             1.2165         calculate D2E/DX2 analytically  !
 ! D3    D(12,2,3,4)            -1.6512         calculate D2E/DX2 analytically  !
 ! D4    D(12,2,3,15)          176.6092         calculate D2E/DX2 analytically  !
 ! D5    D(1,2,12,11)          101.8342         calculate D2E/DX2 analytically  !
 ! D6    D(1,2,12,13)         -143.9426         calculate D2E/DX2 analytically  !
 ! D7    D(1,2,12,25)          -23.2404         calculate D2E/DX2 analytically  !
 ! D8    D(3,2,12,11)          -73.639          calculate D2E/DX2 analytically  !
 ! D9    D(3,2,12,13)           40.5843         calculate D2E/DX2 analytically  !
 ! D10   D(3,2,12,25)          161.2865         calculate D2E/DX2 analytically  !
 ! D11   D(2,3,4,5)            172.1575         calculate D2E/DX2 analytically  !
 ! D12   D(2,3,4,14)            -3.5392         calculate D2E/DX2 analytically  !
 ! D13   D(15,3,4,5)            -6.0171         calculate D2E/DX2 analytically  !
 ! D14   D(15,3,4,14)          178.2862         calculate D2E/DX2 analytically  !
 ! D15   D(3,4,5,6)           -126.0267         calculate D2E/DX2 analytically  !
 ! D16   D(3,4,5,16)            -4.9882         calculate D2E/DX2 analytically  !
 ! D17   D(3,4,5,17)           113.7233         calculate D2E/DX2 analytically  !
 ! D18   D(14,4,5,6)            49.7515         calculate D2E/DX2 analytically  !
 ! D19   D(14,4,5,16)          170.7899         calculate D2E/DX2 analytically  !
 ! D20   D(14,4,5,17)          -70.4986         calculate D2E/DX2 analytically  !
 ! D21   D(3,4,14,10)           82.8686         calculate D2E/DX2 analytically  !
 ! D22   D(3,4,14,13)          -29.8083         calculate D2E/DX2 analytically  !
 ! D23   D(3,4,14,26)         -149.586          calculate D2E/DX2 analytically  !
 ! D24   D(5,4,14,10)          -93.1504         calculate D2E/DX2 analytically  !
 ! D25   D(5,4,14,13)          154.1728         calculate D2E/DX2 analytically  !
 ! D26   D(5,4,14,26)           34.395          calculate D2E/DX2 analytically  !
 ! D27   D(4,5,6,7)             43.4784         calculate D2E/DX2 analytically  !
 ! D28   D(4,5,6,18)           -78.5891         calculate D2E/DX2 analytically  !
 ! D29   D(4,5,6,19)           163.7096         calculate D2E/DX2 analytically  !
 ! D30   D(16,5,6,7)           -77.2288         calculate D2E/DX2 analytically  !
 ! D31   D(16,5,6,18)          160.7037         calculate D2E/DX2 analytically  !
 ! D32   D(16,5,6,19)           43.0024         calculate D2E/DX2 analytically  !
 ! D33   D(17,5,6,7)           163.9161         calculate D2E/DX2 analytically  !
 ! D34   D(17,5,6,18)           41.8487         calculate D2E/DX2 analytically  !
 ! D35   D(17,5,6,19)          -75.8526         calculate D2E/DX2 analytically  !
 ! D36   D(5,6,7,8)            -91.8533         calculate D2E/DX2 analytically  !
 ! D37   D(5,6,7,20)           148.2691         calculate D2E/DX2 analytically  !
 ! D38   D(5,6,7,21)            29.7186         calculate D2E/DX2 analytically  !
 ! D39   D(18,6,7,8)            30.937          calculate D2E/DX2 analytically  !
 ! D40   D(18,6,7,20)          -88.9406         calculate D2E/DX2 analytically  !
 ! D41   D(18,6,7,21)          152.5089         calculate D2E/DX2 analytically  !
 ! D42   D(19,6,7,8)           148.1691         calculate D2E/DX2 analytically  !
 ! D43   D(19,6,7,20)           28.2915         calculate D2E/DX2 analytically  !
 ! D44   D(19,6,7,21)          -90.259          calculate D2E/DX2 analytically  !
 ! D45   D(6,7,8,9)           -130.3923         calculate D2E/DX2 analytically  !
 ! D46   D(6,7,8,10)            50.8175         calculate D2E/DX2 analytically  !
 ! D47   D(20,7,8,9)            -8.2351         calculate D2E/DX2 analytically  !
 ! D48   D(20,7,8,10)          172.9747         calculate D2E/DX2 analytically  !
 ! D49   D(21,7,8,9)           107.1225         calculate D2E/DX2 analytically  !
 ! D50   D(21,7,8,10)          -71.6677         calculate D2E/DX2 analytically  !
 ! D51   D(7,8,10,11)          100.4817         calculate D2E/DX2 analytically  !
 ! D52   D(7,8,10,14)          -18.4975         calculate D2E/DX2 analytically  !
 ! D53   D(7,8,10,22)         -141.7216         calculate D2E/DX2 analytically  !
 ! D54   D(9,8,10,11)          -78.3334         calculate D2E/DX2 analytically  !
 ! D55   D(9,8,10,14)          162.6874         calculate D2E/DX2 analytically  !
 ! D56   D(9,8,10,22)           39.4632         calculate D2E/DX2 analytically  !
 ! D57   D(8,10,11,12)        -143.8036         calculate D2E/DX2 analytically  !
 ! D58   D(8,10,11,23)         -24.7649         calculate D2E/DX2 analytically  !
 ! D59   D(8,10,11,24)          96.8707         calculate D2E/DX2 analytically  !
 ! D60   D(14,10,11,12)        -13.474          calculate D2E/DX2 analytically  !
 ! D61   D(14,10,11,23)        105.5648         calculate D2E/DX2 analytically  !
 ! D62   D(14,10,11,24)       -132.7997         calculate D2E/DX2 analytically  !
 ! D63   D(22,10,11,12)         99.1826         calculate D2E/DX2 analytically  !
 ! D64   D(22,10,11,23)       -141.7786         calculate D2E/DX2 analytically  !
 ! D65   D(22,10,11,24)        -20.1431         calculate D2E/DX2 analytically  !
 ! D66   D(8,10,14,4)           45.3668         calculate D2E/DX2 analytically  !
 ! D67   D(8,10,14,13)         162.9215         calculate D2E/DX2 analytically  !
 ! D68   D(8,10,14,26)         -81.4503         calculate D2E/DX2 analytically  !
 ! D69   D(11,10,14,4)         -78.6211         calculate D2E/DX2 analytically  !
 ! D70   D(11,10,14,13)         38.9336         calculate D2E/DX2 analytically  !
 ! D71   D(11,10,14,26)        154.5619         calculate D2E/DX2 analytically  !
 ! D72   D(22,10,14,4)         168.2643         calculate D2E/DX2 analytically  !
 ! D73   D(22,10,14,13)        -74.1809         calculate D2E/DX2 analytically  !
 ! D74   D(22,10,14,26)         41.4473         calculate D2E/DX2 analytically  !
 ! D75   D(10,11,12,2)         101.1166         calculate D2E/DX2 analytically  !
 ! D76   D(10,11,12,13)        -15.8355         calculate D2E/DX2 analytically  !
 ! D77   D(10,11,12,25)       -135.2916         calculate D2E/DX2 analytically  !
 ! D78   D(23,11,12,2)         -18.7108         calculate D2E/DX2 analytically  !
 ! D79   D(23,11,12,13)       -135.6628         calculate D2E/DX2 analytically  !
 ! D80   D(23,11,12,25)        104.8811         calculate D2E/DX2 analytically  !
 ! D81   D(24,11,12,2)        -139.4242         calculate D2E/DX2 analytically  !
 ! D82   D(24,11,12,13)        103.6237         calculate D2E/DX2 analytically  !
 ! D83   D(24,11,12,25)        -15.8323         calculate D2E/DX2 analytically  !
 ! D84   D(2,12,13,14)         -73.2714         calculate D2E/DX2 analytically  !
 ! D85   D(11,12,13,14)         42.0738         calculate D2E/DX2 analytically  !
 ! D86   D(25,12,13,14)        164.6311         calculate D2E/DX2 analytically  !
 ! D87   D(12,13,14,4)          67.0121         calculate D2E/DX2 analytically  !
 ! D88   D(12,13,14,10)        -51.0462         calculate D2E/DX2 analytically  !
 ! D89   D(12,13,14,26)       -170.6614         calculate D2E/DX2 analytically  !
 --------------------------------------------------------------------------------
 Trust Radius=3.00D-01 FncErr=1.00D-07 GrdErr=1.00D-06 EigMax=2.50D+02 EigMin=1.00D-04
 Number of steps in this run=    156 maximum allowed number of steps=    156.
 GradGradGradGradGradGradGradGradGradGradGradGradGradGradGradGradGradGrad

 Leave Link  103 at Tue Jan 20 11:23:23 2026, MaxMem=  4294967296 cpu:               0.4 elap:               0.0
 (Enter /root/g16/l202.exe)
                          Input orientation:                          
 ---------------------------------------------------------------------
 Center     Atomic      Atomic             Coordinates (Angstroms)
 Number     Number       Type             X           Y           Z
 ---------------------------------------------------------------------
      1          8           0        3.019427    0.841197    1.310309
      2          6           0        2.075272    0.700330    0.558272
      3          6           0        0.886597    1.547764    0.554297
      4          6           0       -0.136055    1.284000   -0.272589
      5          6           0       -1.449584    1.984715   -0.232606
      6          6           0       -2.579511    0.951890   -0.115668
      7          6           0       -2.242785   -0.144526    0.904685
      8          6           0       -1.563595   -1.358462    0.313872
      9          8           0       -1.967570   -2.472858    0.557261
     10          6           0       -0.342713   -1.204913   -0.575990
     11          6           0        0.964629   -1.490698    0.197505
     12          6           0        1.957510   -0.465495   -0.420523
     13          8           0        1.350510   -0.023307   -1.615906
     14          6           0       -0.003552    0.150255   -1.250272
     15          1           0        0.859370    2.366532    1.258849
     16          1           0       -1.474853    2.668118    0.617075
     17          1           0       -1.584291    2.570308   -1.145122
     18          1           0       -2.783234    0.494002   -1.084478
     19          1           0       -3.487456    1.464942    0.201172
     20          1           0       -3.151825   -0.506832    1.389381
     21          1           0       -1.591640    0.262886    1.682518
     22          1           0       -0.436220   -1.952062   -1.370813
     23          1           0        0.850545   -1.324337    1.269539
     24          1           0        1.303906   -2.511963    0.044187
     25          1           0        2.935606   -0.887235   -0.654099
     26          1           0       -0.572262    0.331207   -2.163226
 ---------------------------------------------------------------------
                    Distance matrix (angstroms):
                    1          2          3          4          5
     1  O    0.000000
     2  C    1.215249   0.000000
     3  C    2.370602   1.459832   0.000000
     4  C    3.557908   2.433305   1.341316   0.000000
     5  C    4.864183   3.834025   2.503575   1.489281   0.000000
     6  C    5.778734   4.710041   3.580199   2.470910   1.535297
     7  C    5.369082   4.413547   3.574863   2.804455   2.540918
     8  C    5.180297   4.188044   3.808858   3.060133   3.389465
     9  O    6.034913   5.139425   4.930687   4.261113   4.556551
    10  C    4.364478   3.280724   3.219624   2.515839   3.393642
    11  C    3.301251   2.482797   3.060333   3.021828   4.253459
    12  C    2.414724   1.526779   2.479988   2.732331   4.200849
    13  O    3.477842   2.403327   2.719055   2.392369   3.712977
    14  C    4.021489   2.809791   2.449870   1.502930   2.547919
    15  H    2.644833   2.178407   1.080517   2.123217   2.775156
    16  H    4.900690   4.059438   2.614494   2.121240   1.090704
    17  H    5.496652   4.448682   3.168424   2.124450   1.092589
    18  H    6.287004   5.132863   4.154956   2.879378   2.174059
    19  H    6.630141   5.626375   4.389065   3.389554   2.147381
    20  H    6.317261   5.428677   4.607340   3.881249   3.425824
    21  H    4.662072   3.860250   3.010888   2.642696   2.579258
    22  H    5.189625   4.130877   4.207692   3.430495   4.221449
    23  H    3.065167   2.470857   2.960040   3.186685   4.300798
    24  H    3.973633   3.343369   4.112875   4.072244   5.280004
    25  H    2.617901   2.174944   3.404098   3.780862   5.258864
    26  H    5.022526   3.814740   3.315602   2.161621   2.689067
                    6          7          8          9         10
     6  C    0.000000
     7  C    1.535133   0.000000
     8  C    2.560140   1.511291   0.000000
     9  O    3.543474   2.370143   1.210088   0.000000
    10  C    3.141172   2.631937   1.518547   2.352042   0.000000
    11  C    4.315697   3.549617   2.534353   3.113174   1.545674
    12  C    4.763033   4.416070   3.706064   4.515730   2.421143
    13  O    4.318193   4.390882   3.741482   4.661825   2.311843
    14  C    2.926689   3.121682   2.675165   3.742361   1.551182
    15  H    3.964393   4.006770   4.543052   5.648319   4.191283
    16  H    2.168553   2.929744   4.038955   5.164880   4.207792
    17  H    2.160906   3.464917   4.190982   5.336529   4.014688
    18  H    1.090760   2.157910   2.621931   3.487531   3.016789
    19  H    1.089942   2.152795   3.418414   4.235933   4.197799
    20  H    2.172691   1.092040   2.098683   2.441341   3.498730
    21  H    2.164276   1.093159   2.121968   2.981916   2.969025
    22  H    3.821259   3.421806   2.112226   2.516690   1.094860
    23  H    4.343420   3.330730   2.596640   3.125413   2.200932
    24  H    5.206224   4.350199   3.102557   3.311696   2.191883
    25  H    5.838562   5.458677   4.626212   5.293650   3.294601
    26  H    2.933733   3.525486   3.158123   4.148580   2.220738
                   11         12         13         14         15
    11  C    0.000000
    12  C    1.555253   0.000000
    13  O    2.364444   1.411708   0.000000
    14  C    2.392939   2.216618   1.413258   0.000000
    15  H    4.001969   3.470818   3.770513   3.457196   0.000000
    16  H    4.839716   4.762064   4.495847   3.462851   2.439554
    17  H    4.979097   4.720752   3.944811   2.892481   3.433960
    18  H    4.430461   4.882225   4.199746   2.805758   4.718698
    19  H    5.343864   5.810400   5.377971   3.996583   4.563600
    20  H    4.397017   5.420587   5.434756   4.160667   4.935883
    21  H    3.437270   4.189246   4.429193   3.337058   3.257648
    22  H    2.152871   2.973697   2.640563   2.149761   5.219572
    23  H    1.090848   2.195288   3.204440   3.041932   3.690895
    24  H    1.087014   2.197996   2.991904   3.236121   5.047052
    25  H    2.230280   1.090456   2.045476   3.173399   4.307799
    26  H    3.354761   3.173562   2.030343   1.090716   4.231161
                   16         17         18         19         20
    16  H    0.000000
    17  H    1.768299   0.000000
    18  H    3.055147   2.398373   0.000000
    19  H    2.381424   2.579996   1.758280   0.000000
    20  H    3.672737   4.283650   2.693976   2.326453   0.000000
    21  H    2.633239   3.649630   3.021519   2.689506   1.764249
    22  H    5.135807   4.671278   3.402013   4.843252   4.133022
    23  H    4.666142   5.189150   4.695967   5.266853   4.086765
    24  H    5.906178   5.965368   5.197540   6.228770   5.067903
    25  H    5.805908   5.711845   5.898997   6.893472   6.432522
    26  H    3.742446   2.659758   2.465481   3.920981   4.469617
                   21         22         23         24         25
    21  H    0.000000
    22  H    3.945100   0.000000
    23  H    2.941784   3.003541   0.000000
    24  H    4.332217   2.311656   1.765639   0.000000
    25  H    5.222883   3.607873   2.870352   2.406198   0.000000
    26  H    3.979139   2.420691   4.068057   4.059100   4.008392
                   26
    26  H    0.000000
 Stoichiometry    C11H12O3
 Framework group  C1[X(C11H12O3)]
 Deg. of freedom    72
 Full point group                 C1      NOp   1
 Largest Abelian subgroup         C1      NOp   1
 Largest concise Abelian subgroup C1      NOp   1
                         Standard orientation:                         
 ---------------------------------------------------------------------
 Center     Atomic      Atomic             Coordinates (Angstroms)
 Number     Number       Type             X           Y           Z
 ---------------------------------------------------------------------
      1          8           0       -3.164861    0.256745   -1.305356
      2          6           0       -2.210520    0.285715   -0.553542
      3          6           0       -1.200296    1.339438   -0.538535
      4          6           0       -0.145913    1.261445    0.286887
      5          6           0        1.014258    2.194739    0.256509
      6          6           0        2.316568    1.391566    0.129875
      7          6           0        2.189117    0.262996   -0.902947
      8          6           0        1.748048   -1.062581   -0.326488
      9          8           0        2.352186   -2.079582   -0.581516
     10          6           0        0.520467   -1.148746    0.563233
     11          6           0       -0.711339   -1.664234   -0.215250
     12          6           0       -1.877269   -0.848590    0.412559
     13          8           0       -1.362416   -0.314425    1.613606
     14          6           0       -0.064527    0.112101    1.251866
     15          1           0       -1.326339    2.156715   -1.234012
     16          1           0        0.911390    2.880264   -0.585577
     17          1           0        1.038207    2.785041    1.175596
     18          1           0        2.602537    0.968895    1.093891
     19          1           0        3.112989    2.068078   -0.179994
     20          1           0        3.149399    0.081554   -1.390273
     21          1           0        1.473052    0.550706   -1.677202
     22          1           0        0.751864   -1.874192    1.349937
     23          1           0       -0.630867   -1.467703   -1.285225
     24          1           0       -0.854556   -2.732427   -0.073650
     25          1           0       -2.759659   -1.447524    0.640070
     26          1           0        0.461142    0.385607    2.167577
 ---------------------------------------------------------------------
 Rotational constants (GHZ):           1.1354943           0.6670131           0.5449069
 Leave Link  202 at Tue Jan 20 11:23:23 2026, MaxMem=  4294967296 cpu:               0.3 elap:               0.0
 (Enter /root/g16/l301.exe)
 Standard basis: def2SVP (5D, 7F)
 Ernie: Thresh=  0.10000D-02 Tol=  0.10000D-05 Strict=F.
 There are   270 symmetry adapted cartesian basis functions of A   symmetry.
 There are   256 symmetry adapted basis functions of A   symmetry.
   256 basis functions,   434 primitive gaussians,   270 cartesian basis functions
    51 alpha electrons       51 beta electrons
       nuclear repulsion energy       942.1630692403 Hartrees.
 IExCor=  402 DFT=T Ex+Corr=B3LYP ExCW=0 ScaHFX=  0.200000
 ScaDFX=  0.800000  0.720000  1.000000  0.810000 ScalE2=  1.000000  1.000000
 IRadAn=      5 IRanWt=     -1 IRanGd=            0 ICorTp=0 IEmpDi=141
 NAtoms=   26 NActive=   26 NUniq=   26 SFac= 1.00D+00 NAtFMM=   60 NAOKFM=F Big=F
 Integral buffers will be    131072 words long.
 Raffenetti 2 integral format.
 Two-electron integral symmetry is turned on.
 R6Disp:  Grimme-D3(BJ) Dispersion energy=       -0.0573531363 Hartrees.
 Nuclear repulsion after empirical dispersion term =      942.1057161041 Hartrees.
 Force inversion solution in PCM.
 ------------------------------------------------------------------------------
 Polarizable Continuum Model (PCM)
 =================================
 Model                : PCM.
 Atomic radii         : UFF (Universal Force Field).
 Polarization charges : Total charges.
 Charge compensation  : None.
 Solution method      : Matrix inversion.
 Cavity type          : Scaled VdW (van der Waals Surface) (Alpha=1.100).
 Cavity algorithm     : GePol (No added spheres)
                        Default sphere list used, NSphG=   26.
                        Lebedev-Laikov grids with approx.  5.0 points / Ang**2.
                        Smoothing algorithm: York/Karplus (Gamma=1.0000).
                        Polarization charges: spherical gaussians, with
                                              point-specific exponents (IZeta= 3).
                        Self-potential: point-specific (ISelfS= 7).
                        Self-field    : sphere-specific E.n sum rule (ISelfD= 2).
 1st derivatives      : Analytical E(r).r(x)/FMM algorithm (CHGder, D1EAlg=3).
                        Cavity 1st derivative terms included.
 2nd derivatives      : Analytical E(r).r(xy)/FMM algorithm (CHGder, D2EAlg=3).
                        Cavity 2nd derivative terms included.
 Solvent              : Acetone, Eps=  20.493000 Eps(inf)=   1.846337
 ------------------------------------------------------------------------------
 GePol: Number of generator spheres                  =      26
 GePol: Total number of spheres                      =      26
 GePol: Number of exposed spheres                    =      26 (100.00%)
 GePol: Number of points                             =    1823
 GePol: Average weight of points                     =       0.13
 GePol: Minimum weight of points                     =   0.30D-10
 GePol: Maximum weight of points                     =    0.20577
 GePol: Number of points with low weight             =     119
 GePol: Fraction of low-weight points (<1% of avg)   =       6.53%
 GePol: Cavity surface area                          =    236.644 Ang**2
 GePol: Cavity volume                                =    256.722 Ang**3
 Leave Link  301 at Tue Jan 20 11:23:23 2026, MaxMem=  4294967296 cpu:               0.4 elap:               0.0
 (Enter /root/g16/l302.exe)
 NPDir=0 NMtPBC=     1 NCelOv=     1 NCel=       1 NClECP=     1 NCelD=      1
         NCelK=      1 NCelE2=     1 NClLst=     1 CellRange=     0.0.
 One-electron integrals computed using PRISM.
 One-electron integral symmetry used in STVInt
   1 Symmetry operations used in ECPInt.
 ECPInt:  NShTT=    7260 NPrTT=   26324 LenC2=    7127 LenP2D=   19918.
 LDataN:  DoStor=T MaxTD1= 4 Len=   56
 NBasis=   256 RedAO= T EigKep=  3.47D-04  NBF=   256
 NBsUse=   256 1.00D-06 EigRej= -1.00D+00 NBFU=   256
 Precomputing XC quadrature grid using
 IXCGrd= 4 IRadAn=           5 IRanWt=          -1 IRanGd=           0 AccXCQ= 0.00D+00.
 Generated NRdTot=       0 NPtTot=           0 NUsed=           0 NTot=          32
 NSgBfM=   270   270   270   270   270 MxSgAt=    26 MxSgA2=    26.
 Leave Link  302 at Tue Jan 20 11:23:24 2026, MaxMem=  4294967296 cpu:               2.0 elap:               0.1
 (Enter /root/g16/l303.exe)
 DipDrv:  MaxL=1.
 Leave Link  303 at Tue Jan 20 11:23:24 2026, MaxMem=  4294967296 cpu:               0.3 elap:               0.0
 (Enter /root/g16/l401.exe)
 ExpMin= 1.22D-01 ExpMax= 2.27D+03 ExpMxC= 3.41D+02 IAcc=3 IRadAn=         5 AccDes= 0.00D+00
 Harris functional with IExCor=  402 and IRadAn=       5 diagonalized for initial guess.
 HarFok:  IExCor=  402 AccDes= 0.00D+00 IRadAn=         5 IDoV= 1 UseB2=F ITyADJ=14
 ICtDFT=  3500011 ScaDFX=  1.000000  1.000000  1.000000  1.000000
 FoFCou: FMM=F IPFlag=           0 FMFlag=      100000 FMFlg1=           0
         NFxFlg=           0 DoJE=T BraDBF=F KetDBF=T FulRan=T
         wScrn=  0.000000 ICntrl=       500 IOpCl=  0 I1Cent=   200000004 NGrid=           0
         NMat0=    1 NMatS0=      1 NMatT0=    0 NMatD0=    1 NMtDS0=    0 NMtDT0=    0
 Petite list used in FoFCou.
 Harris En= -651.600509805188    
 JPrj=0 DoOrth=F DoCkMO=F.
 Leave Link  401 at Tue Jan 20 11:23:24 2026, MaxMem=  4294967296 cpu:               8.8 elap:               0.6
 (Enter /root/g16/l502.exe)
 Integral symmetry usage will be decided dynamically.
 Closed shell SCF:
 Using DIIS extrapolation, IDIIS=  1040.
 NGot=  4294967296 LenX=  4294814202 LenY=  4294740861
 Requested convergence on RMS density matrix=1.00D-08 within 128 cycles.
 Requested convergence on MAX density matrix=1.00D-06.
 Requested convergence on             energy=1.00D-06.
 No special actions if energy rises.
 Fock matrices will be formed incrementally for  20 cycles.

 Cycle   1  Pass 1  IDiag  1:
 FoFJK:  IHMeth= 1 ICntrl=       0 DoSepK=F KAlg= 0 I1Cent=           0 FoldK=F
 IRaf= 950000000 NMat=       1 IRICut=       1 DoRegI=T DoRafI=F ISym2E= 0 IDoP0=0 IntGTp=1.
 FoFCou: FMM=F IPFlag=           0 FMFlag=      100000 FMFlg1=           0
         NFxFlg=           0 DoJE=F BraDBF=F KetDBF=F FulRan=T
         wScrn=  0.000000 ICntrl=         0 IOpCl=  0 I1Cent=           0 NGrid=           0
         NMat0=    1 NMatS0=      1 NMatT0=    0 NMatD0=    1 NMtDS0=    0 NMtDT0=    0
 Symmetry not used in FoFCou.
 Inv3:  Mode=1 IEnd=     9969987.
 Iteration    1 A*A^-1 deviation from unit magnitude is 3.44D-15 for    205.
 Iteration    1 A*A^-1 deviation from orthogonality  is 2.28D-15 for   1326    764.
 Iteration    1 A^-1*A deviation from unit magnitude is 3.33D-15 for    607.
 Iteration    1 A^-1*A deviation from orthogonality  is 1.72D-15 for   1587    228.
 E= -651.335974059320    
 DIIS: error= 1.85D-02 at cycle   1 NSaved=   1.
 NSaved= 1 IEnMin= 1 EnMin= -651.335974059320     IErMin= 1 ErrMin= 1.85D-02
 ErrMax= 1.85D-02  0.00D+00 EMaxC= 1.00D-01 BMatC= 3.04D-01 BMatP= 3.04D-01
 IDIUse=3 WtCom= 8.15D-01 WtEn= 1.85D-01
 Coeff-Com:  0.100D+01
 Coeff-En:   0.100D+01
 Coeff:      0.100D+01
 Gap=     0.152 Goal=   None    Shift=    0.000
 GapD=    0.152 DampG=1.000 DampE=0.500 DampFc=0.5000 IDamp=-1.
 Damping current iteration by 5.00D-01
 RMSDP=7.51D-03 MaxDP=3.69D-01              OVMax= 1.63D-01

 Cycle   2  Pass 1  IDiag  1:
 RMSU=  3.75D-03    CP:  9.92D-01
 E= -651.443590003519     Delta-E=       -0.107615944200 Rises=F Damp=T
 DIIS: error= 6.17D-03 at cycle   2 NSaved=   2.
 NSaved= 2 IEnMin= 2 EnMin= -651.443590003519     IErMin= 2 ErrMin= 6.17D-03
 ErrMax= 6.17D-03  0.00D+00 EMaxC= 1.00D-01 BMatC= 3.26D-02 BMatP= 3.04D-01
 IDIUse=3 WtCom= 9.38D-01 WtEn= 6.17D-02
 Coeff-Com:  0.158D+00 0.842D+00
 Coeff-En:   0.220D+00 0.780D+00
 Coeff:      0.162D+00 0.838D+00
 Gap=     0.195 Goal=   None    Shift=    0.000
 RMSDP=2.29D-03 MaxDP=1.23D-01 DE=-1.08D-01 OVMax= 1.26D-01

 Cycle   3  Pass 1  IDiag  1:
 RMSU=  2.14D-03    CP:  9.67D-01  8.47D-01
 E= -651.591511191700     Delta-E=       -0.147921188181 Rises=F Damp=F
 DIIS: error= 8.20D-03 at cycle   3 NSaved=   3.
 NSaved= 3 IEnMin= 3 EnMin= -651.591511191700     IErMin= 2 ErrMin= 6.17D-03
 ErrMax= 8.20D-03  0.00D+00 EMaxC= 1.00D-01 BMatC= 3.39D-02 BMatP= 3.26D-02
 IDIUse=3 WtCom= 9.18D-01 WtEn= 8.20D-02
 Coeff-Com:  0.252D-01 0.504D+00 0.471D+00
 Coeff-En:   0.000D+00 0.000D+00 0.100D+01
 Coeff:      0.231D-01 0.463D+00 0.514D+00
 Gap=     0.178 Goal=   None    Shift=    0.000
 RMSDP=1.20D-03 MaxDP=4.48D-02 DE=-1.48D-01 OVMax= 5.16D-02

 Cycle   4  Pass 1  IDiag  1:
 RMSU=  8.62D-04    CP:  9.76D-01  9.83D-01  7.08D-01
 E= -651.615901418579     Delta-E=       -0.024390226878 Rises=F Damp=F
 DIIS: error= 2.84D-03 at cycle   4 NSaved=   4.
 NSaved= 4 IEnMin= 4 EnMin= -651.615901418579     IErMin= 4 ErrMin= 2.84D-03
 ErrMax= 2.84D-03  0.00D+00 EMaxC= 1.00D-01 BMatC= 5.96D-03 BMatP= 3.26D-02
 IDIUse=3 WtCom= 9.72D-01 WtEn= 2.84D-02
 Coeff-Com:  0.171D-02 0.134D+00 0.315D+00 0.549D+00
 Coeff-En:   0.000D+00 0.000D+00 0.174D+00 0.826D+00
 Coeff:      0.167D-02 0.130D+00 0.311D+00 0.557D+00
 Gap=     0.180 Goal=   None    Shift=    0.000
 RMSDP=5.31D-04 MaxDP=2.15D-02 DE=-2.44D-02 OVMax= 1.97D-02

 Cycle   5  Pass 1  IDiag  1:
 RMSU=  2.26D-04    CP:  9.72D-01  9.12D-01  7.69D-01  5.68D-01
 E= -651.620900809818     Delta-E=       -0.004999391239 Rises=F Damp=F
 DIIS: error= 4.25D-04 at cycle   5 NSaved=   5.
 NSaved= 5 IEnMin= 5 EnMin= -651.620900809818     IErMin= 5 ErrMin= 4.25D-04
 ErrMax= 4.25D-04  0.00D+00 EMaxC= 1.00D-01 BMatC= 1.59D-04 BMatP= 5.96D-03
 IDIUse=3 WtCom= 9.96D-01 WtEn= 4.25D-03
 Coeff-Com: -0.770D-03 0.205D-01 0.101D+00 0.245D+00 0.634D+00
 Coeff-En:   0.000D+00 0.000D+00 0.000D+00 0.000D+00 0.100D+01
 Coeff:     -0.766D-03 0.204D-01 0.101D+00 0.244D+00 0.636D+00
 Gap=     0.179 Goal=   None    Shift=    0.000
 RMSDP=9.51D-05 MaxDP=2.88D-03 DE=-5.00D-03 OVMax= 8.59D-03

 Cycle   6  Pass 1  IDiag  1:
 RMSU=  5.51D-05    CP:  9.73D-01  9.21D-01  7.70D-01  6.12D-01  7.40D-01
 E= -651.621017508456     Delta-E=       -0.000116698638 Rises=F Damp=F
 DIIS: error= 2.07D-04 at cycle   6 NSaved=   6.
 NSaved= 6 IEnMin= 6 EnMin= -651.621017508456     IErMin= 6 ErrMin= 2.07D-04
 ErrMax= 2.07D-04  0.00D+00 EMaxC= 1.00D-01 BMatC= 4.18D-05 BMatP= 1.59D-04
 IDIUse=3 WtCom= 9.98D-01 WtEn= 2.07D-03
 Coeff-Com: -0.470D-03 0.608D-04 0.333D-01 0.972D-01 0.397D+00 0.473D+00
 Coeff-En:   0.000D+00 0.000D+00 0.000D+00 0.000D+00 0.210D+00 0.790D+00
 Coeff:     -0.469D-03 0.607D-04 0.333D-01 0.970D-01 0.396D+00 0.474D+00
 Gap=     0.179 Goal=   None    Shift=    0.000
 RMSDP=3.14D-05 MaxDP=1.38D-03 DE=-1.17D-04 OVMax= 3.76D-03

 Cycle   7  Pass 1  IDiag  1:
 RMSU=  1.41D-05    CP:  9.72D-01  9.21D-01  7.72D-01  6.10D-01  7.67D-01
                    CP:  5.14D-01
 E= -651.621059382434     Delta-E=       -0.000041873977 Rises=F Damp=F
 DIIS: error= 3.69D-05 at cycle   7 NSaved=   7.
 NSaved= 7 IEnMin= 7 EnMin= -651.621059382434     IErMin= 7 ErrMin= 3.69D-05
 ErrMax= 3.69D-05  0.00D+00 EMaxC= 1.00D-01 BMatC= 1.56D-06 BMatP= 4.18D-05
 IDIUse=1 WtCom= 1.00D+00 WtEn= 0.00D+00
 Coeff-Com: -0.143D-03-0.135D-02 0.106D-01 0.329D-01 0.162D+00 0.242D+00
 Coeff-Com:  0.554D+00
 Coeff:     -0.143D-03-0.135D-02 0.106D-01 0.329D-01 0.162D+00 0.242D+00
 Coeff:      0.554D+00
 Gap=     0.179 Goal=   None    Shift=    0.000
 RMSDP=7.18D-06 MaxDP=2.25D-04 DE=-4.19D-05 OVMax= 4.43D-04

 Cycle   8  Pass 1  IDiag  1:
 RMSU=  4.33D-06    CP:  9.72D-01  9.20D-01  7.73D-01  6.12D-01  7.66D-01
                    CP:  5.28D-01  6.55D-01
 E= -651.621060818868     Delta-E=       -0.000001436434 Rises=F Damp=F
 DIIS: error= 9.61D-06 at cycle   8 NSaved=   8.
 NSaved= 8 IEnMin= 8 EnMin= -651.621060818868     IErMin= 8 ErrMin= 9.61D-06
 ErrMax= 9.61D-06  0.00D+00 EMaxC= 1.00D-01 BMatC= 8.69D-08 BMatP= 1.56D-06
 IDIUse=1 WtCom= 1.00D+00 WtEn= 0.00D+00
 Coeff-Com:  0.214D-04-0.676D-03 0.178D-02 0.536D-02 0.357D-01 0.616D-01
 Coeff-Com:  0.232D+00 0.664D+00
 Coeff:      0.214D-04-0.676D-03 0.178D-02 0.536D-02 0.357D-01 0.616D-01
 Coeff:      0.232D+00 0.664D+00
 Gap=     0.179 Goal=   None    Shift=    0.000
 RMSDP=2.14D-06 MaxDP=1.08D-04 DE=-1.44D-06 OVMax= 4.28D-05

 Cycle   9  Pass 1  IDiag  1:
 RMSU=  1.40D-06    CP:  9.72D-01  9.20D-01  7.73D-01  6.11D-01  7.69D-01
                    CP:  5.34D-01  6.78D-01  7.74D-01
 E= -651.621060890468     Delta-E=       -0.000000071600 Rises=F Damp=F
 DIIS: error= 4.30D-06 at cycle   9 NSaved=   9.
 NSaved= 9 IEnMin= 9 EnMin= -651.621060890468     IErMin= 9 ErrMin= 4.30D-06
 ErrMax= 4.30D-06  0.00D+00 EMaxC= 1.00D-01 BMatC= 1.16D-08 BMatP= 8.69D-08
 IDIUse=1 WtCom= 1.00D+00 WtEn= 0.00D+00
 Coeff-Com:  0.264D-04-0.279D-03 0.263D-03 0.598D-03 0.818D-02 0.151D-01
 Coeff-Com:  0.809D-01 0.343D+00 0.552D+00
 Coeff:      0.264D-04-0.279D-03 0.263D-03 0.598D-03 0.818D-02 0.151D-01
 Coeff:      0.809D-01 0.343D+00 0.552D+00
 Gap=     0.179 Goal=   None    Shift=    0.000
 RMSDP=7.07D-07 MaxDP=3.01D-05 DE=-7.16D-08 OVMax= 1.98D-05

 Cycle  10  Pass 1  IDiag  1:
 RMSU=  4.45D-07    CP:  9.72D-01  9.20D-01  7.73D-01  6.11D-01  7.69D-01
                    CP:  5.33D-01  6.85D-01  8.21D-01  6.75D-01
 E= -651.621060898218     Delta-E=       -0.000000007751 Rises=F Damp=F
 DIIS: error= 2.35D-06 at cycle  10 NSaved=  10.
 NSaved=10 IEnMin=10 EnMin= -651.621060898218     IErMin=10 ErrMin= 2.35D-06
 ErrMax= 2.35D-06  0.00D+00 EMaxC= 1.00D-01 BMatC= 2.07D-09 BMatP= 1.16D-08
 IDIUse=1 WtCom= 1.00D+00 WtEn= 0.00D+00
 Coeff-Com:  0.160D-04-0.704D-04-0.114D-03-0.507D-03-0.505D-03-0.649D-03
 Coeff-Com:  0.137D-01 0.107D+00 0.331D+00 0.550D+00
 Coeff:      0.160D-04-0.704D-04-0.114D-03-0.507D-03-0.505D-03-0.649D-03
 Coeff:      0.137D-01 0.107D+00 0.331D+00 0.550D+00
 Gap=     0.179 Goal=   None    Shift=    0.000
 RMSDP=2.86D-07 MaxDP=1.39D-05 DE=-7.75D-09 OVMax= 9.18D-06

 Cycle  11  Pass 1  IDiag  1:
 RMSU=  1.69D-07    CP:  9.72D-01  9.20D-01  7.73D-01  6.11D-01  7.69D-01
                    CP:  5.33D-01  6.87D-01  8.34D-01  7.23D-01  6.03D-01
 E= -651.621060899691     Delta-E=       -0.000000001472 Rises=F Damp=F
 DIIS: error= 7.18D-07 at cycle  11 NSaved=  11.
 NSaved=11 IEnMin=11 EnMin= -651.621060899691     IErMin=11 ErrMin= 7.18D-07
 ErrMax= 7.18D-07  0.00D+00 EMaxC= 1.00D-01 BMatC= 2.22D-10 BMatP= 2.07D-09
 IDIUse=1 WtCom= 1.00D+00 WtEn= 0.00D+00
 Coeff-Com:  0.701D-05-0.144D-04-0.810D-04-0.331D-03-0.960D-03-0.184D-02
 Coeff-Com:  0.146D-03 0.263D-01 0.131D+00 0.316D+00 0.529D+00
 Coeff:      0.701D-05-0.144D-04-0.810D-04-0.331D-03-0.960D-03-0.184D-02
 Coeff:      0.146D-03 0.263D-01 0.131D+00 0.316D+00 0.529D+00
 Gap=     0.179 Goal=   None    Shift=    0.000
 RMSDP=9.26D-08 MaxDP=4.42D-06 DE=-1.47D-09 OVMax= 2.86D-06

 Cycle  12  Pass 1  IDiag  1:
 RMSU=  6.20D-08    CP:  9.72D-01  9.20D-01  7.73D-01  6.11D-01  7.69D-01
                    CP:  5.33D-01  6.87D-01  8.37D-01  7.29D-01  6.76D-01
                    CP:  7.08D-01
 E= -651.621060899872     Delta-E=       -0.000000000181 Rises=F Damp=F
 DIIS: error= 1.60D-07 at cycle  12 NSaved=  12.
 NSaved=12 IEnMin=12 EnMin= -651.621060899872     IErMin=12 ErrMin= 1.60D-07
 ErrMax= 1.60D-07  0.00D+00 EMaxC= 1.00D-01 BMatC= 1.97D-11 BMatP= 2.22D-10
 IDIUse=1 WtCom= 1.00D+00 WtEn= 0.00D+00
 Coeff-Com:  0.169D-05 0.650D-06-0.256D-04-0.108D-03-0.414D-03-0.909D-03
 Coeff-Com: -0.155D-02-0.719D-03 0.249D-01 0.946D-01 0.278D+00 0.607D+00
 Coeff:      0.169D-05 0.650D-06-0.256D-04-0.108D-03-0.414D-03-0.909D-03
 Coeff:     -0.155D-02-0.719D-03 0.249D-01 0.946D-01 0.278D+00 0.607D+00
 Gap=     0.179 Goal=   None    Shift=    0.000
 RMSDP=2.70D-08 MaxDP=1.07D-06 DE=-1.81D-10 OVMax= 7.99D-07

 Cycle  13  Pass 1  IDiag  1:
 RMSU=  1.45D-08    CP:  9.72D-01  9.20D-01  7.73D-01  6.11D-01  7.69D-01
                    CP:  5.33D-01  6.87D-01  8.38D-01  7.35D-01  6.85D-01
                    CP:  7.48D-01  7.75D-01
 E= -651.621060899885     Delta-E=       -0.000000000013 Rises=F Damp=F
 DIIS: error= 3.54D-08 at cycle  13 NSaved=  13.
 NSaved=13 IEnMin=13 EnMin= -651.621060899885     IErMin=13 ErrMin= 3.54D-08
 ErrMax= 3.54D-08  0.00D+00 EMaxC= 1.00D-01 BMatC= 1.56D-12 BMatP= 1.97D-11
 IDIUse=1 WtCom= 1.00D+00 WtEn= 0.00D+00
 Coeff-Com:  0.380D-06 0.113D-05-0.507D-05-0.259D-04-0.112D-03-0.294D-03
 Coeff-Com: -0.649D-03-0.233D-02 0.199D-02 0.217D-01 0.958D-01 0.299D+00
 Coeff-Com:  0.585D+00
 Coeff:      0.380D-06 0.113D-05-0.507D-05-0.259D-04-0.112D-03-0.294D-03
 Coeff:     -0.649D-03-0.233D-02 0.199D-02 0.217D-01 0.958D-01 0.299D+00
 Coeff:      0.585D+00
 Gap=     0.179 Goal=   None    Shift=    0.000
 RMSDP=7.16D-09 MaxDP=1.96D-07 DE=-1.28D-11 OVMax= 2.50D-07

 Error on total polarization charges =  0.00860
 SCF Done:  E(RB3LYP) =  -651.621060900     A.U. after   13 cycles
            NFock= 13  Conv=0.72D-08     -V/T= 2.0094
 KE= 6.455357099662D+02 PE=-3.400966803342D+03 EE= 1.161704316372D+03
 Leave Link  502 at Tue Jan 20 11:23:41 2026, MaxMem=  4294967296 cpu:             272.0 elap:              17.2
 (Enter /root/g16/l801.exe)
 DoSCS=F DFT=T ScalE2(SS,OS)=  1.000000  1.000000
 Range of M.O.s used for correlation:     1   256
 NBasis=   256 NAE=    51 NBE=    51 NFC=     0 NFV=     0
 NROrb=    256 NOA=    51 NOB=    51 NVA=   205 NVB=   205
 Leave Link  801 at Tue Jan 20 11:23:41 2026, MaxMem=  4294967296 cpu:               0.1 elap:               0.0
 (Enter /root/g16/l1101.exe)
 Using compressed storage, NAtomX=    26.
 Will process     27 centers per pass.
   1 Symmetry operations used in ECPInt.
 ECPInt:  NShTT=    7260 NPrTT=   26324 LenC2=    7127 LenP2D=   19918.
 LDataN:  DoStor=T MaxTD1= 5 Len=  102
 R6Disp: Adding Grimme-D3(BJ) dispersion energy 1st derivatives to the gradient.
 Leave Link 1101 at Tue Jan 20 11:23:42 2026, MaxMem=  4294967296 cpu:               3.8 elap:               0.2
 (Enter /root/g16/l1102.exe)
 Symmetrizing basis deriv contribution to polar:
 IMax=3 JMax=2 DiffMx= 0.00D+00
 Leave Link 1102 at Tue Jan 20 11:23:42 2026, MaxMem=  4294967296 cpu:               0.3 elap:               0.0
 (Enter /root/g16/l1110.exe)
 Forming Gx(P) for the SCF density, NAtomX=    26.
 Integral derivatives from FoFJK, PRISM(SPDF).
 Do as many integral derivatives as possible in FoFJK.
 G2DrvN: MDV=    4294965288.
 G2DrvN: will do    27 centers at a time, making    1 passes.
 Calling FoFCou, ICntrl=  3107 FMM=F I1Cent=   0 AccDes= 0.00D+00.
 FoFJK:  IHMeth= 1 ICntrl=    3107 DoSepK=F KAlg= 0 I1Cent=           0 FoldK=F
 IRaf=         0 NMat=       1 IRICut=       1 DoRegI=T DoRafI=F ISym2E= 0 IDoP0=0 IntGTp=1.
 FoFCou: FMM=F IPFlag=           0 FMFlag=      100000 FMFlg1=           0
         NFxFlg=           0 DoJE=F BraDBF=F KetDBF=F FulRan=T
         wScrn=  0.000000 ICntrl=      3107 IOpCl=  0 I1Cent=           0 NGrid=           0
         NMat0=    1 NMatS0=      1 NMatT0=    0 NMatD0=    1 NMtDS0=    0 NMtDT0=    0
 Symmetry not used in FoFCou.
 NEqPCM:  Using equilibrium solvation (IEInf=0, Eps=  20.4930, EpsInf=   1.8463)
 G2PCM: DoFxE=T DoFxN=T DoGrad=T DoDP/DQ/DG/TGxP=FFFF NFrqRd=   0 IEInf=0 SqF1=F DoCFld=F IF1Alg=4.
 GePol: Maximum number of non-zero 1st derivatives   =     228
 End of G2Drv F.D. properties file   721 does not exist.
 End of G2Drv F.D. properties file   722 does not exist.
 End of G2Drv F.D. properties file   788 does not exist.
 Leave Link 1110 at Tue Jan 20 11:24:07 2026, MaxMem=  4294967296 cpu:             396.3 elap:              24.8
 (Enter /root/g16/l1002.exe)
 Minotr:  Closed shell wavefunction.
          IDoAtm=11111111111111111111111111
 NEqPCM:  Using equilibrium solvation (IEInf=0, Eps=  20.4930, EpsInf=   1.8463)
          Direct CPHF calculation.
          Differentiating once with respect to nuclear coordinates.
          Requested convergence is 1.0D-08 RMS, and 1.0D-07 maximum.
          Secondary convergence is 1.0D-12 RMS, and 1.0D-12 maximum.
          NewPWx=T KeepS1=F KeepF1=F KeepIn=T MapXYZ=F SortEE=F KeepMc=T.
         7756 words used for storage of precomputed grid.
 Keep R1 ints in memory in canonical form, NReq=558668828.
 FoFCou: FMM=F IPFlag=           0 FMFlag=           0 FMFlg1=           0
         NFxFlg=           0 DoJE=F BraDBF=F KetDBF=F FulRan=T
         wScrn=  0.000000 ICntrl=       600 IOpCl=  0 I1Cent=           0 NGrid=           0
         NMat0=    1 NMatS0=  32896 NMatT0=    0 NMatD0=    1 NMtDS0=    0 NMtDT0=    0
 Symmetry not used in FoFCou.
 Two-electron integral symmetry not used.
          MDV=    4294967296 using IRadAn=       1.
          Solving linear equations simultaneously, MaxMat=       0.
          There are    81 degrees of freedom in the 1st order CPHF.  IDoFFX=6 NUNeed=     0.
     75 vectors produced by pass  0 Test12= 1.29D-14 1.23D-09 XBig12= 1.28D-01 1.07D-01.
 AX will form    75 AO Fock derivatives at one time.
     75 vectors produced by pass  1 Test12= 1.29D-14 1.23D-09 XBig12= 4.00D-02 6.69D-02.
     75 vectors produced by pass  2 Test12= 1.29D-14 1.23D-09 XBig12= 4.07D-04 2.43D-03.
     75 vectors produced by pass  3 Test12= 1.29D-14 1.23D-09 XBig12= 1.76D-06 1.66D-04.
     75 vectors produced by pass  4 Test12= 1.29D-14 1.23D-09 XBig12= 5.22D-09 8.67D-06.
     54 vectors produced by pass  5 Test12= 1.29D-14 1.23D-09 XBig12= 6.48D-12 3.22D-07.
     13 vectors produced by pass  6 Test12= 1.29D-14 1.23D-09 XBig12= 5.92D-15 6.34D-09.
 InvSVY:  IOpt=1 It=  1 EMax= 3.33D-16
 Solved reduced A of dimension   442 with    81 vectors.
 End of Minotr F.D. properties file   721 does not exist.
 End of Minotr F.D. properties file   722 does not exist.
 End of Minotr F.D. properties file   788 does not exist.
 Leave Link 1002 at Tue Jan 20 11:24:38 2026, MaxMem=  4294967296 cpu:             499.5 elap:              31.2
 (Enter /root/g16/l601.exe)
 Copying SCF densities to generalized density rwf, IOpCl= 0 IROHF=0.

 **********************************************************************

            Population analysis using the SCF density.

 **********************************************************************

 Orbital symmetries:
       Occupied  (A) (A) (A) (A) (A) (A) (A) (A) (A) (A) (A) (A)
                 (A) (A) (A) (A) (A) (A) (A) (A) (A) (A) (A) (A)
                 (A) (A) (A) (A) (A) (A) (A) (A) (A) (A) (A) (A)
                 (A) (A) (A) (A) (A) (A) (A) (A) (A) (A) (A) (A)
                 (A) (A) (A)
       Virtual   (A) (A) (A) (A) (A) (A) (A) (A) (A) (A) (A) (A)
                 (A) (A) (A) (A) (A) (A) (A) (A) (A) (A) (A) (A)
                 (A) (A) (A) (A) (A) (A) (A) (A) (A) (A) (A) (A)
                 (A) (A) (A) (A) (A) (A) (A) (A) (A) (A) (A) (A)
                 (A) (A) (A) (A) (A) (A) (A) (A) (A) (A) (A) (A)
                 (A) (A) (A) (A) (A) (A) (A) (A) (A) (A) (A) (A)
                 (A) (A) (A) (A) (A) (A) (A) (A) (A) (A) (A) (A)
                 (A) (A) (A) (A) (A) (A) (A) (A) (A) (A) (A) (A)
                 (A) (A) (A) (A) (A) (A) (A) (A) (A) (A) (A) (A)
                 (A) (A) (A) (A) (A) (A) (A) (A) (A) (A) (A) (A)
                 (A) (A) (A) (A) (A) (A) (A) (A) (A) (A) (A) (A)
                 (A) (A) (A) (A) (A) (A) (A) (A) (A) (A) (A) (A)
                 (A) (A) (A) (A) (A) (A) (A) (A) (A) (A) (A) (A)
                 (A) (A) (A) (A) (A) (A) (A) (A) (A) (A) (A) (A)
                 (A) (A) (A) (A) (A) (A) (A) (A) (A) (A) (A) (A)
                 (A) (A) (A) (A) (A) (A) (A) (A) (A) (A) (A) (A)
                 (A) (A) (A) (A) (A) (A) (A) (A) (A) (A) (A) (A)
                 (A)
 The electronic state is 1-A.
 Alpha  occ. eigenvalues --  -19.15254 -19.13318 -19.12853 -10.28351 -10.27367
 Alpha  occ. eigenvalues --  -10.25686 -10.24554 -10.22261 -10.21098 -10.20575
 Alpha  occ. eigenvalues --  -10.20098 -10.20021 -10.19508 -10.19474  -1.06897
 Alpha  occ. eigenvalues --   -1.04404  -1.03291  -0.85406  -0.80096  -0.79241
 Alpha  occ. eigenvalues --   -0.76688  -0.72223  -0.64709  -0.63894  -0.62935
 Alpha  occ. eigenvalues --   -0.57572  -0.55605  -0.54095  -0.51684  -0.50470
 Alpha  occ. eigenvalues --   -0.48852  -0.46866  -0.45399  -0.44803  -0.44263
 Alpha  occ. eigenvalues --   -0.43544  -0.42968  -0.42384  -0.39885  -0.39659
 Alpha  occ. eigenvalues --   -0.38992  -0.37141  -0.36798  -0.35844  -0.35362
 Alpha  occ. eigenvalues --   -0.35062  -0.33440  -0.30459  -0.27790  -0.25927
 Alpha  occ. eigenvalues --   -0.24320
 Alpha virt. eigenvalues --   -0.06420  -0.03055   0.03799   0.05062   0.06827
 Alpha virt. eigenvalues --    0.07867   0.09160   0.09755   0.10918   0.11903
 Alpha virt. eigenvalues --    0.12483   0.13724   0.13987   0.15195   0.15709
 Alpha virt. eigenvalues --    0.15982   0.17823   0.19576   0.19975   0.21142
 Alpha virt. eigenvalues --    0.22604   0.23280   0.25791   0.26358   0.26964
 Alpha virt. eigenvalues --    0.27563   0.30240   0.33491   0.33995   0.35932
 Alpha virt. eigenvalues --    0.37120   0.40134   0.43711   0.44129   0.45006
 Alpha virt. eigenvalues --    0.47087   0.48704   0.49590   0.49933   0.51225
 Alpha virt. eigenvalues --    0.52298   0.54082   0.56085   0.56943   0.57203
 Alpha virt. eigenvalues --    0.57940   0.58397   0.59505   0.60819   0.61517
 Alpha virt. eigenvalues --    0.62221   0.62917   0.63550   0.64216   0.64565
 Alpha virt. eigenvalues --    0.65404   0.65599   0.66293   0.66790   0.67443
 Alpha virt. eigenvalues --    0.67858   0.68731   0.69474   0.70325   0.70480
 Alpha virt. eigenvalues --    0.71124   0.72381   0.72836   0.73546   0.75673
 Alpha virt. eigenvalues --    0.77234   0.78518   0.80331   0.81030   0.85116
 Alpha virt. eigenvalues --    0.87774   0.88285   0.90119   0.91909   0.93470
 Alpha virt. eigenvalues --    0.94068   1.00144   1.01282   1.06539   1.09011
 Alpha virt. eigenvalues --    1.11108   1.13701   1.15122   1.16457   1.17177
 Alpha virt. eigenvalues --    1.19242   1.20075   1.22741   1.26085   1.29779
 Alpha virt. eigenvalues --    1.31212   1.34154   1.36398   1.38906   1.40006
 Alpha virt. eigenvalues --    1.41071   1.44030   1.46950   1.49392   1.52528
 Alpha virt. eigenvalues --    1.54660   1.55736   1.56864   1.58024   1.60577
 Alpha virt. eigenvalues --    1.62369   1.65194   1.65969   1.69305   1.69964
 Alpha virt. eigenvalues --    1.71264   1.72276   1.73678   1.74329   1.75441
 Alpha virt. eigenvalues --    1.76183   1.77024   1.78559   1.79648   1.80438
 Alpha virt. eigenvalues --    1.80885   1.82443   1.83179   1.83919   1.85512
 Alpha virt. eigenvalues --    1.86938   1.88410   1.89568   1.90822   1.91201
 Alpha virt. eigenvalues --    1.92050   1.93686   1.96596   1.97347   1.98541
 Alpha virt. eigenvalues --    2.00293   2.02208   2.04174   2.05189   2.06905
 Alpha virt. eigenvalues --    2.08117   2.10657   2.12621   2.13874   2.15586
 Alpha virt. eigenvalues --    2.18146   2.18874   2.21063   2.22040   2.24994
 Alpha virt. eigenvalues --    2.27256   2.28205   2.32823   2.33438   2.35419
 Alpha virt. eigenvalues --    2.36725   2.38221   2.40304   2.45198   2.46045
 Alpha virt. eigenvalues --    2.47697   2.49846   2.52323   2.55047   2.57002
 Alpha virt. eigenvalues --    2.57503   2.62735   2.63372   2.65242   2.66853
 Alpha virt. eigenvalues --    2.69075   2.71121   2.72304   2.74714   2.76502
 Alpha virt. eigenvalues --    2.77882   2.81052   2.83578   2.88393   2.89858
 Alpha virt. eigenvalues --    2.90161   2.94197   2.94404   2.96913   2.98545
 Alpha virt. eigenvalues --    3.00180   3.03782   3.05147   3.07284   3.10459
 Alpha virt. eigenvalues --    3.14352   3.15857   3.17377   3.22572   3.31201
 Alpha virt. eigenvalues --    3.36995   3.41039   3.57708   3.61817   3.63988
          Condensed to atoms (all electrons):
               1          2          3          4          5          6
     1  O    7.657559   0.729784  -0.097092   0.006905  -0.000097   0.000002
     2  C    0.729784   4.873489   0.182345   0.075041   0.008906   0.000010
     3  C   -0.097092   0.182345   5.454957   0.304066  -0.049163  -0.002979
     4  C    0.006905   0.075041   0.304066   5.519739   0.350488  -0.049316
     5  C   -0.000097   0.008906  -0.049163   0.350488   4.616198   0.385254
     6  C    0.000002   0.000010  -0.002979  -0.049316   0.385254   4.671465
     7  C    0.000002  -0.001439   0.004016   0.003844  -0.053860   0.362085
     8  C   -0.000012   0.001828  -0.003442   0.005971  -0.015590  -0.021634
     9  O   -0.000000  -0.000021   0.000009  -0.000239  -0.000018   0.002200
    10  C    0.000247  -0.014568  -0.001373  -0.046314  -0.001870   0.019569
    11  C    0.000411  -0.056778   0.032692  -0.048985   0.001105  -0.002207
    12  C   -0.086263   0.235033  -0.168724   0.005978  -0.002000   0.000524
    13  O    0.001449  -0.024537  -0.000632  -0.052316   0.005005  -0.000284
    14  C    0.000494  -0.054261   0.008875   0.112517  -0.070065  -0.003702
    15  H    0.005589  -0.051055   0.409778  -0.056887  -0.021813   0.000721
    16  H   -0.000010   0.000796  -0.022308  -0.007644   0.356859  -0.009231
    17  H    0.000002  -0.000817   0.003477   0.006603   0.331551  -0.007442
    18  H    0.000000   0.000088  -0.000988  -0.024883   0.000260   0.366011
    19  H   -0.000000   0.000010   0.000154   0.009042  -0.005596   0.341987
    20  H   -0.000000   0.000034  -0.000066  -0.000649   0.007273  -0.000200
    21  H   -0.000012   0.000268  -0.002881   0.010132  -0.008799  -0.020518
    22  H   -0.000010   0.000305  -0.000435   0.010502  -0.000230  -0.001340
    23  H    0.001654   0.000299  -0.001999   0.005285   0.000610   0.000013
    24  H   -0.000216   0.003199  -0.001221   0.001238  -0.000048  -0.000012
    25  H    0.009034  -0.018593   0.014553   0.000467   0.000125  -0.000013
    26  H    0.000016   0.000865   0.007004  -0.033844   0.000786  -0.005140
               7          8          9         10         11         12
     1  O    0.000002  -0.000012  -0.000000   0.000247   0.000411  -0.086263
     2  C   -0.001439   0.001828  -0.000021  -0.014568  -0.056778   0.235033
     3  C    0.004016  -0.003442   0.000009  -0.001373   0.032692  -0.168724
     4  C    0.003844   0.005971  -0.000239  -0.046314  -0.048985   0.005978
     5  C   -0.053860  -0.015590  -0.000018  -0.001870   0.001105  -0.002000
     6  C    0.362085  -0.021634   0.002200   0.019569  -0.002207   0.000524
     7  C    4.915646   0.362793  -0.091789  -0.222779   0.009937  -0.000756
     8  C    0.362793   4.791628   0.723153   0.138093  -0.024362   0.009393
     9  O   -0.091789   0.723153   7.669612  -0.103297   0.000965   0.000108
    10  C   -0.222779   0.138093  -0.103297   5.683353   0.275996  -0.068873
    11  C    0.009937  -0.024362   0.000965   0.275996   4.818674   0.297002
    12  C   -0.000756   0.009393   0.000108  -0.068873   0.297002   5.090473
    13  O    0.000174   0.005010  -0.000021  -0.030263  -0.077076   0.281709
    14  C    0.011773  -0.005344   0.006482   0.134291  -0.006396  -0.051293
    15  H   -0.000298   0.000151   0.000001  -0.000648  -0.001339   0.017546
    16  H   -0.012210   0.000291   0.000001  -0.001366   0.000061  -0.000232
    17  H    0.007722   0.000233   0.000004   0.000216   0.000040   0.000200
    18  H   -0.042989   0.000404   0.000928  -0.011110   0.000653  -0.000218
    19  H    0.005625   0.003244  -0.000180   0.000067  -0.000012  -0.000005
    20  H    0.290004   0.006823   0.010863   0.017487  -0.000526   0.000014
    21  H    0.329766   0.003040   0.002082   0.006789   0.000191  -0.000445
    22  H    0.013519   0.012640   0.006054   0.266177   0.015604  -0.006529
    23  H    0.003152  -0.002370  -0.000182  -0.000204   0.343076  -0.015773
    24  H   -0.000348   0.001187   0.001683   0.016029   0.305687   0.026042
    25  H    0.000031  -0.000394  -0.000005   0.006026   0.001203   0.313392
    26  H    0.000360  -0.001377   0.000005  -0.012518   0.011910   0.002139
              13         14         15         16         17         18
     1  O    0.001449   0.000494   0.005589  -0.000010   0.000002   0.000000
     2  C   -0.024537  -0.054261  -0.051055   0.000796  -0.000817   0.000088
     3  C   -0.000632   0.008875   0.409778  -0.022308   0.003477  -0.000988
     4  C   -0.052316   0.112517  -0.056887  -0.007644   0.006603  -0.024883
     5  C    0.005005  -0.070065  -0.021813   0.356859   0.331551   0.000260
     6  C   -0.000284  -0.003702   0.000721  -0.009231  -0.007442   0.366011
     7  C    0.000174   0.011773  -0.000298  -0.012210   0.007722  -0.042989
     8  C    0.005010  -0.005344   0.000151   0.000291   0.000233   0.000404
     9  O   -0.000021   0.006482   0.000001   0.000001   0.000004   0.000928
    10  C   -0.030263   0.134291  -0.000648  -0.001366   0.000216  -0.011110
    11  C   -0.077076  -0.006396  -0.001339   0.000061   0.000040   0.000653
    12  C    0.281709  -0.051293   0.017546  -0.000232   0.000200  -0.000218
    13  O    7.996251   0.280856  -0.000819  -0.000183   0.000108   0.000021
    14  C    0.280856   5.051398   0.010265   0.013368  -0.010134   0.020095
    15  H   -0.000819   0.010265   0.697946   0.007113   0.000714  -0.000017
    16  H   -0.000183   0.013368   0.007113   0.690033  -0.024421   0.007763
    17  H    0.000108  -0.010134   0.000714  -0.024421   0.667169  -0.012069
    18  H    0.000021   0.020095  -0.000017   0.007763  -0.012069   0.685313
    19  H   -0.000000  -0.000712  -0.000068  -0.013166  -0.002161  -0.021680
    20  H    0.000006  -0.000096  -0.000009   0.000267  -0.000380   0.000638
    21  H    0.000015  -0.005850   0.000197   0.005610   0.000597   0.008643
    22  H    0.003233  -0.006799   0.000029   0.000027  -0.000019  -0.000049
    23  H    0.004085  -0.015090  -0.000511  -0.000039  -0.000014  -0.000016
    24  H    0.001776   0.003279   0.000043  -0.000001   0.000003  -0.000011
    25  H   -0.017372   0.002162  -0.000550  -0.000003   0.000001   0.000001
    26  H   -0.020273   0.365899  -0.000339  -0.000326   0.004384   0.000015
              19         20         21         22         23         24
     1  O   -0.000000  -0.000000  -0.000012  -0.000010   0.001654  -0.000216
     2  C    0.000010   0.000034   0.000268   0.000305   0.000299   0.003199
     3  C    0.000154  -0.000066  -0.002881  -0.000435  -0.001999  -0.001221
     4  C    0.009042  -0.000649   0.010132   0.010502   0.005285   0.001238
     5  C   -0.005596   0.007273  -0.008799  -0.000230   0.000610  -0.000048
     6  C    0.341987  -0.000200  -0.020518  -0.001340   0.000013  -0.000012
     7  C    0.005625   0.290004   0.329766   0.013519   0.003152  -0.000348
     8  C    0.003244   0.006823   0.003040   0.012640  -0.002370   0.001187
     9  O   -0.000180   0.010863   0.002082   0.006054  -0.000182   0.001683
    10  C    0.000067   0.017487   0.006789   0.266177  -0.000204   0.016029
    11  C   -0.000012  -0.000526   0.000191   0.015604   0.343076   0.305687
    12  C   -0.000005   0.000014  -0.000445  -0.006529  -0.015773   0.026042
    13  O   -0.000000   0.000006   0.000015   0.003233   0.004085   0.001776
    14  C   -0.000712  -0.000096  -0.005850  -0.006799  -0.015090   0.003279
    15  H   -0.000068  -0.000009   0.000197   0.000029  -0.000511   0.000043
    16  H   -0.013166   0.000267   0.005610   0.000027  -0.000039  -0.000001
    17  H   -0.002161  -0.000380   0.000597  -0.000019  -0.000014   0.000003
    18  H   -0.021680   0.000638   0.008643  -0.000049  -0.000016  -0.000011
    19  H    0.671442  -0.014834  -0.002804   0.000050   0.000010   0.000001
    20  H   -0.014834   0.689312  -0.011703  -0.000686  -0.000360   0.000012
    21  H   -0.002804  -0.011703   0.650509  -0.000122   0.000855  -0.000047
    22  H    0.000050  -0.000686  -0.000122   0.681459   0.006570  -0.017948
    23  H    0.000010  -0.000360   0.000855   0.006570   0.654727  -0.019884
    24  H    0.000001   0.000012  -0.000047  -0.017948  -0.019884   0.660573
    25  H    0.000000  -0.000000   0.000006   0.000296   0.005795  -0.015574
    26  H   -0.000019  -0.000002   0.000127  -0.012354  -0.000496  -0.000177
              25         26
     1  O    0.009034   0.000016
     2  C   -0.018593   0.000865
     3  C    0.014553   0.007004
     4  C    0.000467  -0.033844
     5  C    0.000125   0.000786
     6  C   -0.000013  -0.005140
     7  C    0.000031   0.000360
     8  C   -0.000394  -0.001377
     9  O   -0.000005   0.000005
    10  C    0.006026  -0.012518
    11  C    0.001203   0.011910
    12  C    0.313392   0.002139
    13  O   -0.017372  -0.020273
    14  C    0.002162   0.365899
    15  H   -0.000550  -0.000339
    16  H   -0.000003  -0.000326
    17  H    0.000001   0.004384
    18  H    0.000001   0.000015
    19  H    0.000000  -0.000019
    20  H   -0.000000  -0.000002
    21  H    0.000006   0.000127
    22  H    0.000296  -0.012354
    23  H    0.005795  -0.000496
    24  H   -0.015574  -0.000177
    25  H    0.695126  -0.000403
    26  H   -0.000403   0.672710
 Mulliken charges:
               1
     1  O   -0.229437
     2  C    0.109769
     3  C   -0.068623
     4  C   -0.106740
     5  C    0.164727
     6  C   -0.025823
     7  C    0.106018
     8  C    0.008643
     9  O   -0.228399
    10  C   -0.049159
    11  C    0.102473
    12  C    0.121560
    13  O   -0.355922
    14  C    0.207987
    15  H   -0.015740
    16  H    0.008954
    17  H    0.034434
    18  H    0.023198
    19  H    0.029606
    20  H    0.006780
    21  H    0.034353
    22  H    0.030057
    23  H    0.030807
    24  H    0.034737
    25  H    0.004688
    26  H    0.021052
 Sum of Mulliken charges =  -0.00000
 Mulliken charges with hydrogens summed into heavy atoms:
               1
     1  O   -0.229437
     2  C    0.109769
     3  C   -0.084363
     4  C   -0.106740
     5  C    0.208115
     6  C    0.026981
     7  C    0.147151
     8  C    0.008643
     9  O   -0.228399
    10  C   -0.019102
    11  C    0.168017
    12  C    0.126248
    13  O   -0.355922
    14  C    0.229039
 APT charges:
               1
     1  O    0.786173
     2  C   -0.907045
     3  C   -0.529713
     4  C   -0.343702
     5  C   -0.513240
     6  C   -0.693865
     7  C   -0.397851
     8  C   -1.150811
     9  O    0.688261
    10  C   -0.433455
    11  C   -0.453273
    12  C   -0.479274
    13  O   -0.145997
    14  C   -0.323904
    15  H    0.442895
    16  H    0.381352
    17  H    0.459851
    18  H    0.212920
    19  H    0.647435
    20  H    0.572138
    21  H    0.071305
    22  H    0.429367
    23  H    0.155706
    24  H    0.535190
    25  H    0.567908
    26  H    0.421630
 Sum of APT charges =  -0.00000
 APT charges with hydrogens summed into heavy atoms:
               1
     1  O    0.786173
     2  C   -0.907045
     3  C   -0.086818
     4  C   -0.343702
     5  C    0.327963
     6  C    0.166490
     7  C    0.245592
     8  C   -1.150811
     9  O    0.688261
    10  C   -0.004088
    11  C    0.237623
    12  C    0.088633
    13  O   -0.145997
    14  C    0.097726
 Electronic spatial extent (au):  <R**2>=           2276.7288
 Charge=             -0.0000 electrons
 Dipole moment (field-independent basis, Debye):
    X=              3.5793    Y=              2.8939    Z=              1.6138  Tot=              4.8775
 Quadrupole moment (field-independent basis, Debye-Ang):
   XX=            -97.5372   YY=            -80.5118   ZZ=            -83.9029
   XY=             12.7666   XZ=             -1.5271   YZ=             -1.9945
 Traceless Quadrupole moment (field-independent basis, Debye-Ang):
   XX=            -10.2199   YY=              6.8055   ZZ=              3.4144
   XY=             12.7666   XZ=             -1.5271   YZ=             -1.9945
 Octapole moment (field-independent basis, Debye-Ang**2):
  XXX=             35.4370  YYY=             11.9481  ZZZ=              0.2182  XYY=            -19.9552
  XXY=             14.4819  XXZ=             26.4484  XZZ=             17.9544  YZZ=              0.7862
  YYZ=              5.1319  XYZ=             -6.5892
 Hexadecapole moment (field-independent basis, Debye-Ang**3):
 XXXX=          -1763.5772 YYYY=           -895.4373 ZZZZ=           -426.6898 XXXY=             73.1896
 XXXZ=            -77.1471 YYYX=             49.6687 YYYZ=            -19.3233 ZZZX=              4.6820
 ZZZY=              6.6235 XXYY=           -443.9679 XXZZ=           -377.7446 YYZZ=           -213.1399
 XXYZ=            -13.8566 YYXZ=             15.3025 ZZXY=              1.0627
 N-N= 9.421057161041D+02 E-N=-3.400966793215D+03  KE= 6.455357099662D+02
  Exact polarizability:   0.000   0.000   0.000   0.000   0.000   0.000
 Approx polarizability: 200.752   2.961 159.572  30.258   0.768 156.536
 No NMR shielding tensors so no spin-rotation constants.
 Leave Link  601 at Tue Jan 20 11:24:38 2026, MaxMem=  4294967296 cpu:               2.0 elap:               0.2
 (Enter /root/g16/l701.exe)
 ... and contract with generalized density number  0.
 Compute integral second derivatives.
 R6Disp: Adding Grimme-D3(BJ) dispersion energy 2nd derivatives to the Hessian.
   1 Symmetry operations used in ECPInt.
 ECPInt:  NShTT=    7260 NPrTT=   26324 LenC2=    7127 LenP2D=   19918.
 LDataN:  DoStor=T MaxTD1= 6 Len=  172
 D2PCM: PCM CHGder 2nd derivatives, FixD1E=F FixD2E=F DoIter=F DoCFld=F I1PDM=0
 GePol: Maximum number of non-zero 2nd derivatives   =     228
 Leave Link  701 at Tue Jan 20 11:24:41 2026, MaxMem=  4294967296 cpu:              41.4 elap:               2.6
 (Enter /root/g16/l702.exe)
 L702 exits ... SP integral derivatives will be done elsewhere.
 Leave Link  702 at Tue Jan 20 11:24:41 2026, MaxMem=  4294967296 cpu:               0.1 elap:               0.0
 (Enter /root/g16/l703.exe)
 Integral derivatives from FoFJK, PRISM(SPDF).
 Compute integral second derivatives, UseDBF=F ICtDFT=           0.
 Calling FoFJK, ICntrl=    100147 FMM=F ISym2X=0 I1Cent= 0 IOpClX= 0 NMat=1 NMatS=1 NMatT=0.
 FoFJK:  IHMeth= 1 ICntrl=  100147 DoSepK=F KAlg= 0 I1Cent=           0 FoldK=F
 IRaf=         0 NMat=       1 IRICut=       1 DoRegI=T DoRafI=F ISym2E= 0 IDoP0=0 IntGTp=1.
 FoFCou: FMM=F IPFlag=           0 FMFlag=      100000 FMFlg1=         800
         NFxFlg=           0 DoJE=F BraDBF=F KetDBF=F FulRan=T
         wScrn=  0.000000 ICntrl=    100147 IOpCl=  0 I1Cent=           0 NGrid=           0
         NMat0=    1 NMatS0=      1 NMatT0=    0 NMatD0=    1 NMtDS0=    0 NMtDT0=    0
 Symmetry not used in FoFCou.
 Leave Link  703 at Tue Jan 20 11:25:18 2026, MaxMem=  4294967296 cpu:             600.5 elap:              37.5
 (Enter /root/g16/l716.exe)
 Dipole        = 1.40818842D+00 1.13853778D+00 6.34899267D-01
 Polarizability= 0.00000000D+00 0.00000000D+00 0.00000000D+00
                 0.00000000D+00 0.00000000D+00 0.00000000D+00
 ***** Axes restored to original set *****
 -------------------------------------------------------------------
 Center     Atomic                   Forces (Hartrees/Bohr)
 Number     Number              X              Y              Z
 -------------------------------------------------------------------
      1        8           0.005895938    0.001039294    0.004822167
      2        6           0.000922848   -0.003929138   -0.007489520
      3        6           0.004671982    0.003387844    0.001815368
      4        6          -0.004654041    0.005215472   -0.006968807
      5        6           0.000151954   -0.005636340    0.000125693
      6        6           0.006103980    0.000860916    0.005914561
      7        6          -0.006326155   -0.000904388   -0.002439881
      8        6           0.000251684    0.005084435   -0.002414652
      9        8          -0.002530513   -0.009283148    0.001480237
     10        6           0.000535907   -0.001519255   -0.001811151
     11        6           0.001813982    0.002990722   -0.002878326
     12        6           0.003759474   -0.003058105    0.005672898
     13        8           0.000631288    0.000712250   -0.003898120
     14        6          -0.000184518   -0.002029435   -0.000480901
     15        1          -0.001512114    0.006481094    0.006711593
     16        1          -0.000292982    0.004512103    0.004290113
     17        1          -0.000707498    0.004518372   -0.005921542
     18        1          -0.003350067   -0.001390579   -0.006658706
     19        1          -0.006095772    0.002179216    0.000022435
     20        1          -0.002398606   -0.002666272    0.003100642
     21        1           0.003189724    0.002182371    0.005975319
     22        1          -0.001603206   -0.001755879   -0.002151309
     23        1          -0.000023121   -0.001017680    0.006119556
     24        1           0.001097760   -0.006414107   -0.000364960
     25        1           0.004785641   -0.000983998    0.000598240
     26        1          -0.004133569    0.001424236   -0.003170947
 -------------------------------------------------------------------
 Cartesian Forces:  Max     0.009283148 RMS     0.003835531
 FormGI is forming the generalized inverse of G from B-inverse, IUseBI=4.
 Leave Link  716 at Tue Jan 20 11:25:18 2026, MaxMem=  4294967296 cpu:               0.3 elap:               0.0
 (Enter /root/g16/l103.exe)

 GradGradGradGradGradGradGradGradGradGradGradGradGradGradGradGradGradGrad
 Berny optimization.
 Red2BG is reusing G-inverse.
 Internal  Forces:  Max     0.012334032 RMS     0.002878860
 Search for a local minimum.
 Step number   1 out of a maximum of  156
 All quantities printed in internal units (Hartrees-Bohrs-Radians)
[...]
 4,0.00002795,-0.00139427,-0.00486782,0.00064801,-0.02121369,0.00965141
 ,0.00674229,-0.22643740,0.10994118,0.06782232,-0.00333164,0.00204302,0
 .00209805,0.00103198,-0.00073598,-0.00105150,-0.00015784,0.00050991,0.
 00007616,-0.00002677,-0.00030953,-0.00011945,-0.00002046,0.00003362,0.
 00006781,0.00001553,-0.00010090,0.00003910,-0.00006512,0.00019618,0.00
 024489,0.00031873,-0.00018147,-0.00039445,-0.00008309,-0.00012826,0.00
 009573,0.00108020,0.00051018,-0.00035881,0.00038514,-0.00000081,0.0001
 6490,0.00616201,-0.00340258,-0.00188502,0.24329208,-0.00056102,0.00010
 618,-0.00004255,0.00088473,-0.00039682,-0.00063514,-0.00114122,0.00123
 508,-0.00030479,-0.00222832,-0.00366077,0.00093101,-0.02167083,0.00949
 491,0.00676889,0.11038184,-0.10823408,-0.04158797,0.01822170,-0.014814
 16,-0.00581208,-0.00030803,0.00092389,0.00536983,-0.00018543,-0.002332
 28,-0.00113294,-0.00016541,0.00017664,-0.00040866,-0.00026540,0.000065
 65,-0.00006757,0.00000426,-0.00011805,0.00003881,0.00020615,0.00031057
 ,0.00016287,-0.00005767,-0.00038429,-0.00030990,-0.00006357,-0.0001442
 4,0.00010960,0.00012922,0.00121176,0.00007266,0.00077022,0.00042955,0.
 00002197,0.00957675,-0.00586108,-0.00360677,-0.11368489,0.12097095,0.0
 0011831,-0.00002519,0.00007164,-0.00013324,0.00011525,-0.00002288,0.00
 024406,-0.00006095,-0.00014621,-0.00027366,0.00019260,0.00049453,-0.00
 023665,-0.00198738,-0.00045196,0.07001598,-0.04196556,-0.07170658,-0.0
 1859043,0.01451836,0.00620656,-0.00058151,-0.00005830,-0.00421345,0.00
 038249,0.00198065,0.00079912,0.00004172,0.00019434,0.00029549,0.000060
 56,-0.00008493,0.00002605,0.00003299,0.00008101,-0.00010735,0.00014263
 ,-0.00017835,0.00024043,-0.00035923,0.00040486,-0.00023725,-0.00001031
 ,-0.00000697,0.00002247,-0.00047016,0.00045720,0.00093931,0.00001537,-
 0.00014199,-0.00014552,0.02329214,-0.01332700,-0.00852212,-0.07353092,
 0.04071311,0.07456016,-0.00016725,-0.00000701,-0.00014478,0.00025420,-
 0.00002431,0.00016932,0.00001551,-0.00009567,0.00023676,-0.00021213,0.
 00021430,-0.00012307,0.00040756,0.00130059,-0.00112397,0.00834336,0.00
 463886,-0.00372227,-0.24473078,-0.08229329,0.09002940,-0.01664075,-0.0
 0725215,0.00726675,0.00342027,-0.00101827,-0.00217238,0.00088465,0.002
 50847,0.00108376,0.00029013,0.00002345,0.00009584,0.00006956,-0.000026
 36,-0.00002452,-0.00020767,-0.00014876,0.00003471,0.00036032,0.0002370
 2,-0.00037330,0.00000094,0.00000459,-0.00002609,-0.00001405,0.00004307
 ,-0.00000026,0.00022626,0.00031600,-0.00013877,-0.00005532,-0.00036349
 ,0.00006342,0.00135608,0.00001816,-0.00003831,0.26008777,-0.00018764,0
 .00008114,-0.00004513,0.00031397,-0.00029901,-0.00009349,-0.00028843,0
 .00029406,0.00003293,0.00103612,-0.00051593,0.00003629,0.00099291,-0.0
 0192277,0.00404756,-0.01770310,-0.00939119,0.00651828,-0.08616557,-0.0
 7985950,0.04069682,0.02588087,0.00639421,-0.01154512,-0.00094271,0.001
 92705,0.00011372,0.00043431,-0.00388365,-0.00166838,-0.00007994,0.0000
 4276,-0.00013128,0.00000945,-0.00005082,0.00004893,-0.00000116,0.00018
 991,0.00004708,-0.00028179,-0.00023094,0.00013385,0.00000639,0.0000041
 1,0.00002283,0.00005148,0.00013854,-0.00012734,-0.00102612,-0.00098169
 ,0.00023557,0.00006549,0.00013155,0.00035808,-0.00053200,0.00053980,-0
 .00024771,0.08630884,0.09077815,0.00007618,0.00002362,0.00003820,-0.00
 004668,-0.00003839,-0.00001683,0.00019885,-0.00013710,0.00038988,-0.00
 095050,-0.00017085,-0.00020485,-0.00138419,0.00119828,-0.00214853,0.01
 604085,0.00689048,-0.00618707,0.08874932,0.03879375,-0.08643115,0.0165
 3171,0.00293746,-0.00853737,-0.00321277,0.00256431,0.00046982,0.000704
 49,-0.00220306,0.00042224,0.00031819,-0.00000031,-0.00029711,0.0000254
 1,-0.00005180,-0.00000895,0.00017130,0.00001607,-0.00001443,-0.0003631
 6,-0.00008869,0.00019647,0.00001304,0.00002993,0.00000919,0.00007286,0
 .00018694,0.00004196,0.00060940,0.00064284,0.00003096,-0.00005065,-0.0
 0021991,-0.00030197,-0.00000994,-0.00044865,0.00120854,-0.09785289,-0.
 04250651,0.09134931,0.00030123,-0.00002830,0.00013018,-0.00048824,0.00
 016356,0.00002955,-0.00003181,-0.00039394,0.00020382,-0.00029463,-0.00
 052117,0.00086101,0.00002786,-0.00068430,0.00126363,-0.00193611,-0.002
 54774,-0.00443016,-0.12368725,-0.04926820,-0.10443584,0.01274961,0.003
 01344,0.01319591,-0.00129283,0.00220718,-0.00208302,-0.00195378,-0.000
 75649,-0.00235260,-0.00026129,0.00004724,0.00057693,-0.00021714,0.0001
 8983,-0.00006546,0.00012109,-0.00006753,-0.00004868,-0.00006730,0.0001
 5958,0.00022295,0.00001335,0.00001124,-0.00000586,0.00027654,0.0002279
 2,-0.00006666,-0.00009202,0.00008244,-0.00004948,0.00005418,0.00086142
 ,-0.00012146,-0.00017540,-0.00001264,0.00001893,-0.01296843,-0.0088351
 1,-0.02016542,0.13007342,0.00007227,-0.00000876,0.00004219,-0.00006108
 ,0.00002929,-0.00003054,-0.00010007,-0.00004606,0.00029138,-0.00079161
 ,-0.00019411,0.00036850,-0.00008047,0.00175268,0.00053451,0.01260834,0
 .00834010,0.02137484,-0.05385882,-0.07620042,-0.07823105,-0.01829273,-
 0.00963503,-0.01756388,0.00491113,-0.00326999,0.00196031,0.00174905,0.
 00032780,0.00173302,0.00024437,0.00000144,-0.00050948,0.00011559,-0.00
 002876,0.00001380,0.00009628,-0.00004508,-0.00004676,0.00004041,-0.000
 05473,0.00015212,-0.00001361,-0.00000070,-0.00000643,0.00020711,-0.000
 31060,-0.00041028,0.00027766,0.00022727,-0.00019169,0.00114946,-0.0034
 4936,0.00300145,-0.00001787,0.00038659,-0.00047700,-0.00429740,-0.0035
 4004,-0.00728366,0.05613143,0.08569008,-0.00031653,0.00008157,-0.00017
 475,0.00060985,-0.00037308,0.00009271,-0.00006911,0.00008460,0.0003823
 9,0.00015116,-0.00009748,-0.00028397,-0.00057683,-0.00100882,0.0012476
 3,-0.01016789,-0.00510958,-0.01827320,-0.10683493,-0.07237361,-0.18874
 111,-0.00795354,-0.00448184,-0.00952991,0.00113112,-0.00032050,0.00020
 217,0.00122561,-0.00001278,0.00111299,0.00016991,0.00006730,-0.0003002
 3,0.00007219,-0.00005104,0.00001491,-0.00000174,0.00009391,0.00009215,
 -0.00011526,-0.00014233,-0.00026356,0.00001898,0.00004907,-0.00000394,
 0.00036125,0.00047985,-0.00012008,-0.00022679,-0.00023812,0.00027980,-
 0.00129892,0.00352560,-0.00169299,0.00000324,0.00013479,0.00023436,0.0
 0634890,0.00466879,0.01008866,0.11768358,0.07507465,0.20517067,-0.0002
 3939,-0.00011231,-0.00022209,0.00014619,0.00046453,0.00019978,0.000087
 50,0.00021619,-0.00010511,0.00019765,-0.00022544,0.00050712,-0.0000188
 8,-0.00017948,-0.00010404,0.00002358,-0.00006639,0.00008885,-0.0039085
 0,-0.00199107,0.00075387,-0.00156183,0.01849460,0.02340516,0.00117030,
 0.00089605,-0.00274247,-0.04272079,-0.01980071,-0.01516143,-0.00582078
 ,-0.01425204,-0.02104833,-0.00063344,0.00041456,-0.00145282,0.00116714
 ,-0.00025839,0.00093778,-0.00075281,-0.00298568,-0.00297414,-0.0000028
 0,-0.00004702,0.00005482,0.00003855,-0.00000597,-0.00001084,0.00004169
 ,0.00002878,-0.00001102,-0.00001828,0.00009351,-0.00007615,0.00003087,
 0.00010026,-0.00006893,-0.00073310,0.00090162,0.00035857,0.00046347,-0
 .00029462,-0.00022290,0.05505415,-0.00089378,0.00027826,-0.00039284,0.
 00144338,-0.00129403,0.00033611,-0.00081169,-0.00011977,-0.00059437,-0
 .00204754,-0.00225337,0.00434609,-0.00020014,0.00009202,-0.00037562,-0
 .00019039,-0.00000840,-0.00007247,0.00007546,0.00039175,0.00019424,0.0
 0222854,0.00038251,0.00010785,-0.00194726,0.00001492,0.00204016,-0.022
 13312,-0.16835501,-0.13699910,0.00412008,0.00480796,0.00793270,-0.0000
 4281,-0.00020358,0.00016534,0.00121452,0.00270190,0.00017126,-0.001973
 98,-0.02437339,-0.01841171,0.00006382,0.00030249,-0.00052881,0.0001757
 2,-0.00004542,-0.00009702,-0.00001154,0.00003259,0.00002616,0.00002785
 ,0.00003522,0.00004818,0.00006929,0.00006585,-0.00001259,0.00001067,0.
 00006444,-0.00015904,-0.00014504,0.00000003,0.00001542,0.01904343,0.18
 462929,0.00043027,-0.00019528,0.00019645,-0.00068168,0.00091987,-0.000
 12360,0.00063156,0.00015684,0.00088285,0.00163861,0.00142025,-0.001876
 24,0.00011562,-0.00012376,0.00018173,0.00004447,0.00011323,-0.00022055
 ,0.00225143,0.00171561,-0.00054977,-0.00107652,-0.01502649,-0.01430028
 ,-0.00027588,0.00123872,0.00291715,-0.01638986,-0.13665512,-0.19058141
 ,-0.00398673,-0.00752894,-0.01181309,-0.00005745,0.00033804,-0.0008543
 7,-0.00132018,-0.00036968,0.00060176,0.00224144,0.01448319,0.00956124,
 -0.00002855,-0.00019075,0.00033634,-0.00007135,0.00000050,0.00005518,0
 .00000118,-0.00004931,0.00000147,0.00000586,-0.00005549,0.00005480,-0.
 00003426,-0.00012017,0.00008984,0.00045803,-0.00063263,-0.00020804,-0.
 00027790,0.00023192,0.00011486,0.01897974,0.14068252,0.20349472,-0.000
 43721,0.00034783,-0.00054895,0.00191378,-0.00032703,0.00140146,-0.0005
 2878,0.00011508,-0.00013286,0.00037870,0.00034589,0.00014722,0.0000267
 4,-0.00002012,-0.00003193,0.00005264,0.00007845,-0.00012184,-0.0004146
 2,-0.00008880,-0.00033097,0.00123542,-0.00009053,-0.00206069,0.0000393
 5,-0.00037257,0.00049694,0.00126305,-0.00492720,-0.02578812,-0.0488292
 9,0.00432761,0.02843466,-0.00095414,0.00420417,0.01810209,-0.00120293,
 -0.00303169,0.00248614,-0.00188173,0.00003779,-0.00087753,0.00005019,-
 0.00008578,0.00004157,0.00000567,-0.00000850,0.00000356,-0.00000951,-0
 .00002015,-0.00000559,0.00001767,-0.00000690,0.00005105,0.00001530,-0.
 00003174,0.00004119,0.00007944,0.00000230,0.00008427,-0.00048581,0.000
 14898,0.00006030,-0.00346227,0.00149786,-0.00260594,0.05465144,0.00019
 489,0.00006036,0.00011268,-0.00073348,-0.00066612,0.00139901,-0.000093
 16,-0.00045966,0.00009014,0.00027911,0.00005162,0.00002250,-0.00008251
 ,-0.00006189,-0.00014131,0.00000275,0.00003037,0.00005355,-0.00020036,
 -0.00014281,0.00012651,-0.00018950,0.00125418,-0.00014604,0.00018618,-
 0.00025985,0.00013098,-0.00226269,-0.00022615,0.00448530,0.00462110,-0
 .05170300,-0.03728612,0.00007923,0.00363285,0.01845330,-0.00047640,-0.
 00472439,0.00458130,-0.00125416,0.00009418,0.00105939,0.00000308,0.000
 09225,-0.00003137,0.00001369,-0.00001045,0.00000526,-0.00004546,0.0000
 3059,0.00001292,-0.00001130,-0.00000555,-0.00001830,-0.00002492,-0.000
 00328,-0.00001284,-0.00009696,0.00004959,-0.00001066,0.00033325,-0.000
 04663,-0.00014600,-0.00031291,0.00036055,0.00006108,-0.00221335,0.0550
 9193,0.00062312,0.00010686,0.00095431,-0.00099639,-0.00092214,-0.00146
 535,0.00047505,0.00007936,0.00062442,-0.00045516,-0.00039490,-0.000348
 00,0.00006972,0.00003130,0.00009371,-0.00000117,-0.00001231,-0.0000103
 0,-0.00054197,-0.00026302,-0.00008573,0.00152133,0.00151124,-0.0008059
 5,-0.00025295,-0.00089554,0.00062889,-0.00011725,-0.00248445,-0.008263
 33,0.02781017,-0.03478492,-0.31038770,0.00001281,-0.00135480,-0.005505
 96,-0.00008844,0.00216066,-0.00121387,0.00087919,-0.00030819,-0.000684
 01,-0.00000986,0.00006899,0.00000620,-0.00001792,0.00002401,0.00000281
 ,0.00004762,-0.00002480,0.00000477,0.00004111,-0.00001579,0.00003836,0
 .00002005,0.00001895,0.00001086,-0.00006511,0.00007145,0.00004900,0.00
 005226,-0.00005972,0.00012905,-0.00133434,0.00093549,-0.00041389,-0.02
 841879,0.03569853,0.33134225,-0.00051211,-0.00043763,-0.00159746,-0.00
 203431,-0.00004987,0.00412193,0.00105684,-0.00005274,-0.00029304,-0.00
 036636,-0.00085911,-0.00079988,-0.00001358,-0.00016389,0.00019731,-0.0
 0003478,-0.00018433,0.00003904,0.00019282,0.00016432,0.00074291,0.0012
 3681,0.00228776,-0.00228983,-0.00013071,-0.00146812,0.00014451,-0.0113
 1085,0.02361998,0.00174280,-0.06643943,0.08081507,0.01799915,0.0031758
 0,-0.02433845,-0.00572417,0.00162351,0.00018948,0.00124499,-0.00469910
 ,0.00014865,-0.00075000,0.00018987,-0.00003555,-0.00006765,-0.00001357
 ,0.00001610,0.00001347,0.00008964,-0.00002538,0.00000280,0.00006886,-0
 .00001673,0.00001319,0.00000325,0.00004181,0.00001285,-0.00004231,0.00
 001766,0.00006407,-0.00013403,0.00005661,0.00002208,0.00148203,-0.0000
 6593,0.00047623,-0.00069143,0.00291991,0.00052397,0.07587162,-0.000366
 41,-0.00062145,-0.00122987,-0.00196558,0.00096622,0.00324877,0.0005568
 2,0.00007290,-0.00008083,-0.00021949,0.00018229,-0.00011973,0.00001990
 ,-0.00008171,0.00017106,-0.00005713,-0.00006558,-0.00003038,0.00008399
 ,0.00009441,0.00010203,-0.00001774,-0.00009358,0.00053288,-0.00000992,
 0.00007532,-0.00022659,-0.00072410,-0.00046213,-0.00111490,0.08121674,
 -0.29308204,-0.04841504,0.00377922,-0.01670064,-0.00546463,0.00113918,
 0.00012447,0.00130503,-0.00063044,-0.00004328,0.00047818,0.00008868,-0
 .00003347,-0.00008003,0.00001892,-0.00001322,-0.00001647,0.00007176,-0
 .00001807,-0.00002263,-0.00001023,0.00000875,0.00000256,0.00002276,0.0
 0001461,-0.00000230,0.00002090,-0.00000672,-0.00001473,-0.00005984,0.0
 0002360,0.00001996,-0.00034201,0.00132728,-0.00006951,0.00059133,-0.00
 172878,-0.00014077,-0.08343553,0.30883364,0.00042769,0.00008012,0.0008
 2913,0.00045422,0.00061494,-0.00165411,0.00023303,-0.00035246,0.000639
 82,-0.00034433,-0.00056324,-0.00071841,-0.00000495,0.00004099,-0.00001
 703,0.00003476,-0.00005608,0.00000686,-0.00010456,-0.00005470,0.000166
 44,-0.00028470,0.00074302,-0.00091253,-0.00009692,-0.00017493,0.000043
 20,-0.00710143,0.01413648,0.00060728,0.01831414,-0.05139280,-0.0552655
 7,-0.00374891,0.01257485,0.00315400,0.00023948,-0.00051105,-0.00071181
 ,-0.00209104,0.00146756,-0.00131290,0.,0.00005038,-0.00001052,-0.00000
 921,0.00000558,0.00001030,0.00000663,-0.00000979,0.00002273,0.00003775
 ,-0.00001305,0.00002279,0.00000346,0.00000891,0.00002155,-0.00001626,0
 .00001632,0.00005585,-0.00010043,0.00009616,0.00008408,-0.00025337,0.0
 0100855,0.00118141,0.00949400,-0.02892780,-0.00433691,-0.01491961,0.05
 108463,0.05800995,0.00159157,0.00001109,0.00104450,0.00231310,-0.00260
 784,-0.00220511,0.00029186,-0.00067131,-0.00049956,-0.00013515,-0.0002
 4367,-0.00008702,-0.00002947,-0.00002337,0.00020065,0.00000417,0.00001
 456,0.00002742,-0.00001129,0.00001969,0.00009205,0.00031755,0.00002943
 ,-0.00073903,-0.00031888,-0.00025769,0.00028559,-0.00110572,-0.0001200
 7,0.00068355,-0.00998162,0.00500752,0.00379853,-0.27083013,0.09612888,
 0.05564833,-0.01279093,0.00454600,-0.00309561,0.00147525,0.00098458,-0
 .00206208,0.00017811,-0.00013130,0.00007867,-0.00005697,0.00004913,0.0
 0003832,0.00001779,-0.00001187,-0.00000493,0.00003427,-0.00000894,0.00
 000573,-0.00002329,0.00000709,0.00000485,-0.00002682,0.00000929,0.0000
 2112,0.00000626,0.00001252,-0.00000508,-0.00009117,-0.00001539,-0.0000
 6688,-0.00113969,-0.00070651,0.00023577,0.00101314,0.00026031,-0.00039
 373,0.28987820,-0.00211691,0.00263066,0.00313818,0.02531270,-0.0103593
 3,-0.00672026,-0.00133771,-0.00321484,-0.00285273,-0.00047045,0.000351
 01,-0.00037926,0.00003971,0.00011737,0.00001349,0.00001098,-0.00013746
 ,0.00008156,0.00002881,0.00008617,0.00023476,0.00028234,0.00022648,-0.
 00118337,-0.00025478,-0.00033618,0.00028147,-0.00348017,-0.00101044,0.
 00113175,-0.01866823,0.00779287,0.00428397,0.09444092,-0.08626494,-0.0
 2508752,0.01013411,-0.00286842,0.00176951,-0.00172583,-0.00093160,0.00
 184603,0.00077292,-0.00090537,0.00031565,-0.00001704,-0.00001309,-0.00
 001753,0.00004350,-0.00001063,0.00001794,0.00001951,-0.00000058,-0.000
 01955,0.00003028,0.00004521,-0.00001717,-0.00000794,0.00002979,0.00001
 831,-0.00006954,0.00002546,0.00003416,-0.00012947,0.00004783,-0.000108
 09,-0.00090992,-0.00047980,0.00067399,0.00021696,0.00145242,-0.0003169
 6,-0.10251641,0.09363012,-0.00115963,0.00208958,0.00143633,0.01888199,
 -0.00679153,-0.00137133,-0.00089440,-0.00309921,-0.00179036,-0.0009981
 1,-0.00018735,-0.00053493,0.00013676,0.00021485,0.00025024,-0.00001081
 ,-0.00000235,-0.00006957,-0.00001298,-0.00002933,-0.00015477,0.0000101
 6,-0.00023808,0.00055179,0.00002004,0.00009057,-0.00008974,0.00109335,
 0.00090211,-0.00126196,0.00896756,-0.00402062,0.00027127,0.06435324,-0
 .02815741,-0.06393523,-0.03492768,0.01343742,0.00337653,-0.00124905,0.
 00276260,-0.00528584,0.00072745,-0.00064037,0.00025725,-0.00008955,0.0
 0006837,0.00002491,0.00005588,-0.00005156,-0.00000719,0.00004279,0.000
 02209,0.00003956,0.00002737,0.00002236,0.00003105,0.00000936,-0.000006
 15,-0.00001085,0.00001773,-0.00000773,0.00001026,0.00009101,0.00004722
 ,0.00005329,0.00019737,0.00039115,-0.00029154,-0.00058992,-0.00004272,
 0.00039900,-0.05319096,0.02306547,0.06763673,-0.00011650,-0.00071881,-
 0.00038145,-0.00039440,0.00151951,0.00055070,0.00122380,0.00103242,0.0
 0055663,0.00296366,-0.00217500,0.00037536,0.00000626,-0.00010077,0.000
 83970,-0.00021176,0.00003274,0.00033329,0.00002475,-0.00002208,0.00008
 140,0.00000151,0.00015786,-0.00005293,0.00005386,0.00001720,-0.0001476
 7,0.00721657,-0.00175700,0.00804680,-0.00096146,-0.00215118,0.00102219
 ,-0.00479054,-0.00082509,0.00326558,-0.02672673,0.00960056,-0.02675371
 ,-0.11601821,0.02164330,-0.11156860,0.00032151,0.00012059,-0.00010964,
 -0.00005161,-0.00014976,-0.00003316,0.00022402,-0.00011987,0.00001006,
 -0.00092576,0.00020457,0.00062743,0.00002607,0.00003395,-0.00013072,0.
 00000256,0.00001288,-0.00000342,-0.00000095,-0.00001293,-0.00006865,0.
 00006090,0.00050799,-0.00040127,0.00030804,0.00007050,-0.00001281,0.00
 041838,-0.00003213,0.00022428,-0.00058016,0.00037164,-0.00150895,0.137
 92619,-0.00032152,0.00031452,0.00015474,0.00139457,-0.00029901,-0.0003
 4793,0.00131424,-0.00324452,-0.00170931,-0.01336432,0.00339608,-0.0237
 4085,-0.00051009,0.00099792,0.00035945,0.00031005,0.00005465,0.0000958
 6,-0.00010692,-0.00000319,0.00022587,0.00120996,-0.00028058,0.00000451
 ,-0.00059047,-0.00041809,-0.00001628,0.01197676,-0.00360015,0.02022043
 ,0.00018443,-0.00298159,0.00213968,0.00048392,-0.00044938,0.00064997,0
 .00256388,-0.00052818,0.00322493,0.02257517,-0.05271204,0.03272169,-0.
 00134609,-0.00088990,0.00024754,-0.00022569,0.00001277,0.00030124,0.00
 009445,-0.00042863,0.00003294,0.00002189,-0.00002520,-0.00034518,-0.00
 001136,-0.00002822,-0.00005115,-0.00001332,0.00001716,0.00003136,-0.00
 003867,0.00002594,0.00002549,0.00034999,0.00111806,-0.00023656,0.00043
 699,-0.00023014,0.00028053,0.00063896,-0.00022526,0.00044436,0.0002342
 8,0.00009729,0.00016062,-0.02726110,0.06030971,-0.00065607,0.00024626,
 -0.00032113,0.00157711,-0.00048700,0.00013943,0.00118881,-0.00198404,-
 0.00140149,-0.01027310,0.00222297,-0.01548260,-0.00074895,0.00021638,0
 .00034339,-0.00032373,0.00016410,-0.00024388,0.00003064,0.00006636,-0.
 00019172,-0.00075112,0.00038041,0.00036441,0.00039663,0.00015172,-0.00
 015022,-0.00569972,0.00057020,-0.00796271,0.00081785,0.00150751,0.0000
 6103,0.00286307,-0.00068756,0.00062819,0.00718519,-0.00185846,0.012710
 19,-0.12118162,0.03597308,-0.24610909,-0.00093061,-0.00059530,0.000166
 18,-0.00003794,-0.00003990,0.00023540,0.00037824,-0.00057381,0.0000449
 1,0.00076702,0.00005366,0.00014344,0.00003866,0.00010345,0.00030136,0.
 00002576,-0.00004478,0.00001708,-0.00005351,-0.00005663,0.00012708,0.0
 0041126,-0.00041371,0.00121816,-0.00011861,0.00003685,-0.00007211,-0.0
 0032973,0.00012599,-0.00031461,0.00018490,-0.00020379,0.00046510,0.125
 23955,-0.03487397,0.25528419\\0.00000417,-0.00000424,-0.00000934,0.000
 00321,-0.00000249,-0.00000733,0.00000203,-0.00000077,-0.00000276,0.000
 00297,0.00000170,0.00000145,-0.00000056,0.00000358,-0.00000200,-0.0000
 0051,0.00000498,0.00000979,0.00000211,-0.00000055,0.00000314,-0.000000
 38,-0.00000093,0.00000566,-0.00000149,0.00000033,0.00000404,-0.0000045
 2,0.00000094,0.00000025,-0.00000215,-0.00000108,-0.00000439,-0.0000003
 2,-0.00000426,-0.00000544,-0.00000475,-0.00000061,-0.00000480,-0.00000
 250,-0.00000169,-0.00000160,0.00000639,-0.00000194,-0.00000336,0.00000
 459,0.00000054,0.00000300,0.00000042,0.00000139,0.00000371,-0.00000169
 ,0.00000480,0.00000850,0.00000200,0.00000298,0.00000952,0.00000269,0.0
 0000469,0.00000766,0.00000702,-0.00000083,0.00000353,-0.00000608,0.000
 00049,0.,-0.00000126,-0.00000169,-0.00000495,-0.00000248,-0.00000158,-
 0.00000544,-0.00000307,-0.00000409,-0.00000941,-0.00000583,0.00000036,
 0.00000056\\\@


 MUD THROWN IS GROUND LOST -- FROM A TEA BAG
 Job cpu time:       0 days  0 hours 29 minutes 21.5 seconds.
 Elapsed time:       0 days  0 hours  1 minutes 50.6 seconds.
 File lengths (MBytes):  RWF=    260 Int=      0 D2E=      0 Chk=     19 Scr=      1
 Normal termination of Gaussian 16 at Tue Jan 20 11:28:21 2026.
