
                                 *****************
                                 * O   R   C   A *
                                 *****************

                                            #,                                       
                                            ###                                      
                                            ####                                     
                                            #####                                    
                                            ######                                   
                                           ########,                                 
                                     ,,################,,,,,                         
                               ,,#################################,,                 
                          ,,##########################################,,             
                       ,#########################################, ''#####,          
                    ,#############################################,,   '####,        
                  ,##################################################,,,,####,       
                ,###########''''           ''''###############################       
              ,#####''   ,,,,##########,,,,          '''####'''          '####       
            ,##' ,,,,###########################,,,                        '##       
           ' ,,###''''                  '''############,,,                           
         ,,##''                                '''############,,,,        ,,,,,,###''
      ,#''                                            '''#######################'''  
     '                                                          ''''####''''         
             ,#######,   #######,   ,#######,      ##                                
            ,#'     '#,  ##    ##  ,#'     '#,    #''#        ######   ,####,        
            ##       ##  ##   ,#'  ##            #'  '#       #        #'  '#        
            ##       ##  #######   ##           ,######,      #####,   #    #        
            '#,     ,#'  ##    ##  '#,     ,#' ,#      #,         ##   #,  ,#        
             '#######'   ##     ##  '#######'  #'      '#     #####' # '####'        



                  #######################################################
                  #                        -***-                        #
                  #          Department of theory and spectroscopy      #
                  #    Directorship and core code : Frank Neese         #
                  #        Max Planck Institute fuer Kohlenforschung    #
                  #                Kaiser Wilhelm Platz 1               #
                  #                 D-45470 Muelheim/Ruhr               #
                  #                      Germany                        #
                  #                                                     #
                  #                  All rights reserved                #
                  #                        -***-                        #
                  #######################################################


                         Program Version 5.0.4 -  RELEASE  -


 With contributions from (in alphabetic order):
   Daniel Aravena         : Magnetic Suceptibility
   Michael Atanasov       : Ab Initio Ligand Field Theory (pilot matlab implementation)
   Alexander A. Auer      : GIAO ZORA, VPT2 properties, NMR spectrum
   Ute Becker             : Parallelization
   Giovanni Bistoni       : ED, misc. LED, open-shell LED, HFLD
   Martin Brehm           : Molecular dynamics
   Dmytro Bykov           : SCF Hessian
   Vijay G. Chilkuri      : MRCI spin determinant printing, contributions to CSF-ICE
   Dipayan Datta          : RHF DLPNO-CCSD density
   Achintya Kumar Dutta   : EOM-CC, STEOM-CC
   Dmitry Ganyushin       : Spin-Orbit,Spin-Spin,Magnetic field MRCI
   Miquel Garcia          : C-PCM and meta-GGA Hessian, CC/C-PCM, Gaussian charge scheme
   Yang Guo               : DLPNO-NEVPT2, F12-NEVPT2, CIM, IAO-localization
   Andreas Hansen         : Spin unrestricted coupled pair/coupled cluster methods
   Benjamin Helmich-Paris : MC-RPA, TRAH-SCF, COSX integrals
   Lee Huntington         : MR-EOM, pCC
   Robert Izsak           : Overlap fitted RIJCOSX, COSX-SCS-MP3, EOM
   Marcus Kettner         : VPT2
   Christian Kollmar      : KDIIS, OOCD, Brueckner-CCSD(T), CCSD density, CASPT2, CASPT2-K
   Simone Kossmann        : Meta GGA functionals, TD-DFT gradient, OOMP2, MP2 Hessian
   Martin Krupicka        : Initial AUTO-CI
   Lucas Lang             : DCDCAS
   Marvin Lechner         : AUTO-CI (C++ implementation), FIC-MRCC
   Dagmar Lenk            : GEPOL surface, SMD
   Dimitrios Liakos       : Extrapolation schemes; Compound Job, initial MDCI parallelization
   Dimitrios Manganas     : Further ROCIS development; embedding schemes
   Dimitrios Pantazis     : SARC Basis sets
   Anastasios Papadopoulos: AUTO-CI, single reference methods and gradients
   Taras Petrenko         : DFT Hessian,TD-DFT gradient, ASA, ECA, R-Raman, ABS, FL, XAS/XES, NRVS
   Peter Pinski           : DLPNO-MP2, DLPNO-MP2 Gradient
   Christoph Reimann      : Effective Core Potentials
   Marius Retegan         : Local ZFS, SOC
   Christoph Riplinger    : Optimizer, TS searches, QM/MM, DLPNO-CCSD(T), (RO)-DLPNO pert. Triples
   Tobias Risthaus        : Range-separated hybrids, TD-DFT gradient, RPA, STAB
   Michael Roemelt        : Original ROCIS implementation
   Masaaki Saitow         : Open-shell DLPNO-CCSD energy and density
   Barbara Sandhoefer     : DKH picture change effects
   Avijit Sen             : IP-ROCIS
   Kantharuban Sivalingam : CASSCF convergence, NEVPT2, FIC-MRCI
   Bernardo de Souza      : ESD, SOC TD-DFT
   Georgi Stoychev        : AutoAux, RI-MP2 NMR, DLPNO-MP2 response
   Willem Van den Heuvel  : Paramagnetic NMR
   Boris Wezisla          : Elementary symmetry handling
   Frank Wennmohs         : Technical directorship


 We gratefully acknowledge several colleagues who have allowed us to
 interface, adapt or use parts of their codes:
   Stefan Grimme, W. Hujo, H. Kruse, P. Pracht,  : VdW corrections, initial TS optimization,
                  C. Bannwarth, S. Ehlert          DFT functionals, gCP, sTDA/sTD-DF
   Ed Valeev, F. Pavosevic, A. Kumar             : LibInt (2-el integral package), F12 methods
   Garnet Chan, S. Sharma, J. Yang, R. Olivares  : DMRG
   Ulf Ekstrom                                   : XCFun DFT Library
   Mihaly Kallay                                 : mrcc  (arbitrary order and MRCC methods)
   Jiri Pittner, Ondrej Demel                    : Mk-CCSD
   Frank Weinhold                                : gennbo (NPA and NBO analysis)
   Christopher J. Cramer and Donald G. Truhlar   : smd solvation model
   Lars Goerigk                                  : TD-DFT with DH, B97 family of functionals
   V. Asgeirsson, H. Jonsson                     : NEB implementation
   FAccTs GmbH                                   : IRC, NEB, NEB-TS, DLPNO-Multilevel, CI-OPT
                                                   MM, QMMM, 2- and 3-layer-ONIOM, Crystal-QMMM,
                                                   LR-CPCM, SF, NACMEs, symmetry and pop. for TD-DFT,
                                                   nearIR, NL-DFT gradient (VV10), updates on ESD,
                                                   ML-optimized integration grids
   S Lehtola, MJT Oliveira, MAL Marques          : LibXC Library
   Liviu Ungur et al                             : ANISO software


 Your calculation uses the libint2 library for the computation of 2-el integrals
 For citations please refer to: http://libint.valeyev.net

 Your ORCA version has been built with support for libXC version: 5.1.0
 For citations please refer to: https://tddft.org/programs/libxc/

 This ORCA versions uses:
   CBLAS   interface :  Fast vector & matrix operations
   LAPACKE interface :  Fast linear algebra routines
   SCALAPACK package :  Parallel linear algebra routines
   Shared memory     :  Shared parallel matrices
   BLAS/LAPACK       :  OpenBLAS 0.3.15  USE64BITINT DYNAMIC_ARCH NO_AFFINITY Zen SINGLE_THREADED
        Core in use  :  Zen
   Copyright (c) 2011-2014, The OpenBLAS Project


Your calculation utilizes the DFT-NL dispersion correction.
Cite in your paper:
Vydrov, O. A.; Van Voorhis, T. J. Chem. Phys. 2010, 133, 244103
Hujo, W.; Grimme, S. J. Chem. Theory Comput. 2011, 7, 3866 
   

Your calculation utilizes the SMD solvation module
Please cite in your paper:
A.V. Marenich, C.J. Cramer, D.G. Truhlar J. Phys. Chem. B, 113, (2009), 6378 

================================================================================

----- Orbital basis set information -----
Your calculation utilizes the basis: def2-TZVPP
   F. Weigend and R. Ahlrichs, Phys. Chem. Chem. Phys. 7, 3297 (2005).

----- AuxJ basis set information -----
Your calculation utilizes the auxiliary basis: def2/J
   F. Weigend, Phys. Chem. Chem. Phys. 8, 1057 (2006).

================================================================================
                                        WARNINGS
                       Please study these warnings very carefully!
================================================================================

Using LibXC functional ID 531 : wB97M-V exchange-correlation functional
[ 1]  N. Mardirossian and M. Head-Gordon, J. Chem. Phys. 144, 214110 (2016)
Using LibXC functional ID 531 : wB97M-V exchange-correlation functional
[ 1]  N. Mardirossian and M. Head-Gordon, J. Chem. Phys. 144, 214110 (2016)

WARNING: B97M-V or wB97M-V functional requested.
  ===> : libXC variant has now been activated.
         Any manually given DFX/HFX/RangeSep scaling parameters are IGNORED!

Your calculation utilizes LibXC
 by S Lehtola, C Steigemann, MJT Oliveira & MAL Marques
Please cite in your paper:
 S Lehtola, C Steigemann, MJT Oliveira & MAL Marques, SoftwareX, 7, (2018), 1.
   


INFO   : the flag for use of the SHARK integral package has been found!

================================================================================
                                       INPUT FILE
================================================================================
NAME = conf_000_SP.inp
|  1> ! WB97M-V def2-TZVPP def2/J RIJCOSX tightSCF noautostart miniprint nopop
|  2> %maxcore 1638
|  3> %pal nprocs 16 end
|  4> 
|  5> %cpcm
|  6>    smd true
|  7>    SMDsolvent "acetone"
|  8> end
|  9> 
| 10>  * xyz 0 1
| 11> O     2.9325860000   -0.6783980000   -1.4344590000
| 12> C     2.0489140000   -0.5840630000   -0.5985360000
| 13> C     0.8679650000   -1.4647990000   -0.5539410000
| 14> C    -0.1259570000   -1.2189140000    0.3290260000
| 15> C    -1.4605710000   -1.9017150000    0.3130340000
| 16> C    -2.5378140000   -1.0587000000   -0.4035640000
| 17> C    -2.6412240000    0.4018930000    0.0823560000
| 18> C    -1.4245920000    1.2039230000   -0.3516830000
| 19> O    -1.3792670000    1.7298940000   -1.4450520000
| 20> C    -0.2619730000    1.2817330000    0.6271030000
| 21> C     1.0917390000    1.6843610000    0.0077270000
| 22> C     2.0358720000    0.5343270000    0.4470360000
| 23> O     1.4467450000    0.0414160000    1.6479690000
| 24> C     0.0763550000   -0.0840380000    1.3177570000
| 25> H     0.8028050000   -2.2638510000   -1.2976170000
| 26> H    -1.3788030000   -2.8759640000   -0.1912860000
| 27> H    -1.7837170000   -2.0882920000    1.3510670000
| 28> H    -3.5138010000   -1.5483890000   -0.2653420000
| 29> H    -2.3324200000   -1.0513290000   -1.4860920000
| 30> H    -2.7624410000    0.4329220000    1.1770710000
| 31> H    -3.5233360000    0.8696470000   -0.3780420000
| 32> H    -0.5657180000    1.9928920000    1.4133890000
| 33> H     1.0205700000    1.7909430000   -1.0827610000
| 34> H     1.4497550000    2.6357660000    0.4213110000
| 35> H     3.0646820000    0.8562010000    0.6514410000
| 36> H    -0.4903780000   -0.2578870000    2.2413010000
| 37>  *
| 38> 
| 39>                          ****END OF INPUT****
================================================================================

                       ****************************
                       * Single Point Calculation *
                       ****************************

---------------------------------
CARTESIAN COORDINATES (ANGSTROEM)
---------------------------------
  O      2.932586   -0.678398   -1.434459
  C      2.048914   -0.584063   -0.598536
  C      0.867965   -1.464799   -0.553941
  C     -0.125957   -1.218914    0.329026
  C     -1.460571   -1.901715    0.313034
  C     -2.537814   -1.058700   -0.403564
  C     -2.641224    0.401893    0.082356
  C     -1.424592    1.203923   -0.351683
  O     -1.379267    1.729894   -1.445052
  C     -0.261973    1.281733    0.627103
  C      1.091739    1.684361    0.007727
  C      2.035872    0.534327    0.447036
  O      1.446745    0.041416    1.647969
  C      0.076355   -0.084038    1.317757
  H      0.802805   -2.263851   -1.297617
  H     -1.378803   -2.875964   -0.191286
  H     -1.783717   -2.088292    1.351067
  H     -3.513801   -1.548389   -0.265342
  H     -2.332420   -1.051329   -1.486092
  H     -2.762441    0.432922    1.177071
  H     -3.523336    0.869647   -0.378042
  H     -0.565718    1.992892    1.413389
  H      1.020570    1.790943   -1.082761
  H      1.449755    2.635766    0.421311
  H      3.064682    0.856201    0.651441
  H     -0.490378   -0.257887    2.241301

----------------------------
CARTESIAN COORDINATES (A.U.)
----------------------------
  NO LB      ZA    FRAG     MASS         X           Y           Z
   0 O     8.0000    0    15.999    5.541784   -1.281986   -2.710735
   1 C     6.0000    0    12.011    3.871886   -1.103719   -1.131069
   2 C     6.0000    0    12.011    1.640216   -2.768069   -1.046797
   3 C     6.0000    0    12.011   -0.238024   -2.303414    0.621769
   4 C     6.0000    0    12.011   -2.760079   -3.593721    0.591549
   5 C     6.0000    0    12.011   -4.795773   -2.000653   -0.762625
   6 C     6.0000    0    12.011   -4.991190    0.759468    0.155630
   7 C     6.0000    0    12.011   -2.692089    2.275085   -0.664585
   8 O     8.0000    0    15.999   -2.606437    3.269026   -2.730753
   9 C     6.0000    0    12.011   -0.495057    2.422124    1.185053
  10 C     6.0000    0    12.011    2.063088    3.182981    0.014602
  11 C     6.0000    0    12.011    3.847241    1.009732    0.844776
  12 O     8.0000    0    15.999    2.733952    0.078265    3.114210
  13 C     6.0000    0    12.011    0.144290   -0.158809    2.490200
  14 H     1.0000    0     1.008    1.517082   -4.278058   -2.452141
  15 H     1.0000    0     1.008   -2.605560   -5.434784   -0.361478
  16 H     1.0000    0     1.008   -3.370737   -3.946300    2.553147
  17 H     1.0000    0     1.008   -6.640122   -2.926031   -0.501424
  18 H     1.0000    0     1.008   -4.407635   -1.986724   -2.808307
  19 H     1.0000    0     1.008   -5.220257    0.818104    2.224342
  20 H     1.0000    0     1.008   -6.658140    1.643395   -0.714396
  21 H     1.0000    0     1.008   -1.069052    3.766020    2.670918
  22 H     1.0000    0     1.008    1.928598    3.384392   -2.046122
  23 H     1.0000    0     1.008    2.739640    4.980876    0.796162
  24 H     1.0000    0     1.008    5.791410    1.617985    1.231045
  25 H     1.0000    0     1.008   -0.926680   -0.487336    4.235445



           ************************************************************
           *        Program running with 16 parallel MPI-processes    *
           *              working on a common directory               *
           ************************************************************
------------------------------------------------------------------------------
                   ___                                                        
                  /   \      - P O W E R E D   B Y -                         
                 /     \                                                     
                 |  |  |   _    _      __       _____    __    __             
                 |  |  |  | |  | |    /  \     |  _  \  |  |  /  |          
                  \  \/   | |  | |   /    \    | | | |  |  | /  /          
                 / \  \   | |__| |  /  /\  \   | |_| |  |  |/  /          
                |  |  |   |  __  | /  /__\  \  |    /   |      \           
                |  |  |   | |  | | |   __   |  |    \   |  |\   \          
                \     /   | |  | | |  |  |  |  | |\  \  |  | \   \       
                 \___/    |_|  |_| |__|  |__|  |_| \__\ |__|  \__/        
                                                                              
                      - O R C A' S   B I G   F R I E N D -                    
                                      &                                       
                       - I N T E G R A L  F E E D E R -                       
                                                                              
 v1 FN, 2020, v2 2021                                                         
------------------------------------------------------------------------------


Reading SHARK input file conf_000_SP.SHARKINP.tmp ... ok
----------------------
SHARK INTEGRAL PACKAGE
----------------------

Number of atoms                             ...     26
Number of basis functions                   ...    602
Number of shells                            ...    226
Maximum angular momentum                    ...      3
Integral batch strategy                     ... SHARK/LIBINT Hybrid
RI-J (if used) integral strategy            ... SPLIT-RIJ (Revised 2003 algorithm where possible)
Printlevel                                  ...      1
Contraction scheme used                     ... SEGMENTED contraction
Coulomb Range Separation                    ... NOT USED
Exchange Range Separation                   ... Long Range
   Mu parameter                             ...  0.300000
   Scaling (regular/separated)              ...  0.150000  0.850000
Finite Nucleus Model                        ... NOT USED
Auxiliary Coulomb fitting basis             ... AVAILABLE
   # of basis functions in Aux-J            ...    818
   # of shells in Aux-J                     ...    270
   Maximum angular momentum in Aux-J        ...      4
Auxiliary J/K fitting basis                 ... NOT available
Auxiliary Correlation fitting basis         ... NOT available
Auxiliary 'external' fitting basis          ... NOT available
Integral threshold                          ...     2.500000e-11
Primitive cut-off                           ...     2.500000e-12
Primitive pair pre-selection threshold      ...     2.500000e-12

Calculating pre-screening integrals         ... done (  0.0 sec) Dimension = 226
Organizing shell pair data                  ... done (  0.7 sec)
Shell pair information
Total number of shell pairs                 ...     25651
Shell pairs after pre-screening             ...     22091
Total number of primitive shell pairs       ...     71220
Primitive shell pairs kept                  ...     44895
          la=0 lb=0:   4741 shell pairs
          la=1 lb=0:   6131 shell pairs
          la=1 lb=1:   2010 shell pairs
          la=2 lb=0:   3523 shell pairs
          la=2 lb=1:   2313 shell pairs
          la=2 lb=2:    680 shell pairs
          la=3 lb=0:   1274 shell pairs
          la=3 lb=1:    836 shell pairs
          la=3 lb=2:    485 shell pairs
          la=3 lb=3:     98 shell pairs

Calculating one electron integrals          ... done (  0.0 sec)
Calculating RI/J V-Matrix + Cholesky decomp.... done (  0.1 sec)
Calculating Nuclear repulsion               ... done (  0.0 sec) ENN=    941.726802770736 Eh

SHARK setup successfully completed in   1.6 seconds

Maximum memory used throughout the entire GTOINT-calculation: 34.9 MB


           ************************************************************
           *        Program running with 16 parallel MPI-processes    *
           *              working on a common directory               *
           ************************************************************

Diagonalization of the overlap matrix:
Smallest eigenvalue                        ... 1.509e-05
Time for diagonalization                   ...    0.037 sec
Threshold for overlap eigenvalues          ... 1.000e-08
Number of eigenvalues below threshold      ... 0
Time for construction of square roots      ...    0.064 sec
Total time needed                          ...    0.103 sec

Time for model grid setup =    0.191 sec

Loading Hartree-Fock densities                     ... done
Calculating cut-offs                               ... done
Initializing the effective Hamiltonian             ... done
Setting up the integral package (SHARK)            ... done
Starting the Coulomb interaction                   ... done (   0.2 sec)
Reading the grid                                   ... done
Mapping shells                                     ... done
Starting the XC term evaluation                    ... done (   0.1 sec)
  promolecular density results
     # of electrons  =    101.996070569
     EX              =    -84.263535022
     EC              =     -3.452343584
     EX+EC           =    -87.715878606
Transforming the Hamiltonian                       ... done (   0.0 sec)
Diagonalizing the Hamiltonian                      ... done (   0.0 sec)
Back transforming the eigenvectors                 ... done (   0.0 sec)
Now organizing SCF variables                       ... done
-------------------
DFT GRID GENERATION
-------------------

General Integration Accuracy     IntAcc      ... 4.388
Radial Grid Type                 RadialGrid  ... OptM3 with GC (2021)
Angular Grid (max. ang.)         AngularGrid ... 4 (Lebedev-302)
Angular grid pruning method      GridPruning ... 4 (adaptive)
Weight generation scheme         WeightScheme... Becke
Basis function cutoff            BFCut       ... 1.0000e-11
Integration weight cutoff        WCut        ... 1.0000e-14
Angular grids for H and He will be reduced by one unit
Partially contracted basis set               ... off
Rotationally invariant grid construction     ... off

Total number of grid points                  ...   121569
Total number of batches                      ...     1914
Average number of points per batch           ...       63
Average number of grid points per atom       ...     4676
Time for grid setup =    0.658 sec

--------------------
COSX GRID GENERATION
--------------------

GRIDX 1
-------
General Integration Accuracy     IntAcc      ... 3.816
Radial Grid Type                 RadialGrid  ... OptM3 with GC (2021)
Angular Grid (max. ang.)         AngularGrid ... 1 (Lebedev-50)
Angular grid pruning method      GridPruning ... 4 (adaptive)
Weight generation scheme         WeightScheme... Becke
Basis function cutoff            BFCut       ... 1.0000e-11
Integration weight cutoff        WCut        ... 1.0000e-14
Angular grids for H and He will be reduced by one unit
Partially contracted basis set               ... on
Rotationally invariant grid construction     ... off

Total number of grid points                  ...    15437
Total number of batches                      ...      257
Average number of points per batch           ...       60
Average number of grid points per atom       ...      594
UseSFitting                                  ... on

GRIDX 2
-------
General Integration Accuracy     IntAcc      ... 4.020
Radial Grid Type                 RadialGrid  ... OptM3 with GC (2021)
Angular Grid (max. ang.)         AngularGrid ... 2 (Lebedev-110)
Angular grid pruning method      GridPruning ... 4 (adaptive)
Weight generation scheme         WeightScheme... Becke
Basis function cutoff            BFCut       ... 1.0000e-11
Integration weight cutoff        WCut        ... 1.0000e-14
Angular grids for H and He will be reduced by one unit
Partially contracted basis set               ... on
Rotationally invariant grid construction     ... off

Total number of grid points                  ...    33410
Total number of batches                      ...      537
Average number of points per batch           ...       62
Average number of grid points per atom       ...     1285
UseSFitting                                  ... on

GRIDX 3
-------
General Integration Accuracy     IntAcc      ... 4.338
Radial Grid Type                 RadialGrid  ... OptM3 with GC (2021)
Angular Grid (max. ang.)         AngularGrid ... 3 (Lebedev-194)
Angular grid pruning method      GridPruning ... 4 (adaptive)
Weight generation scheme         WeightScheme... Becke
Basis function cutoff            BFCut       ... 1.0000e-11
Integration weight cutoff        WCut        ... 1.0000e-14
Angular grids for H and He will be reduced by one unit
Partially contracted basis set               ... on
Rotationally invariant grid construction     ... off

Total number of grid points                  ...    73173
Total number of batches                      ...     1158
Average number of points per batch           ...       63
Average number of grid points per atom       ...     2814
UseSFitting                                  ... on

Time for X-Grid setup             =    2.766 sec


--------------------
CPCM SOLVATION MODEL
--------------------
CPCM parameters:
  Epsilon                                         ...      20.4930
  Refrac                                          ...       1.3588
  Rsolv                                           ...       1.3000
  Surface type                                    ... GAUSSIAN VDW
  Epsilon function type                           ...         CPCM
Solvent:                                     ... ACETONE
SMD-CDS solvent descriptors:
  Soln                                       ...    1.3588
  Soln25                                     ...    1.3559
  Sola                                       ...    0.0400
  Solb                                       ...    0.4900
  Solg                                       ...   33.7700
  Solc                                       ...    0.0000
  Solh                                       ...    0.0000
Radii:
 Radius for O  used is    4.1990 Bohr (=   2.2220 Ang.)
 Radius for C  used is    3.4960 Bohr (=   1.8500 Ang.)
 Radius for H  used is    2.2677 Bohr (=   1.2000 Ang.)
Calculating surface                               ...        done! (  0.0s)
GEPOL surface points                              ...         1359
GEPOL Volume                                      ...    1565.4335
GEPOL Surface-area                                ...     821.4289
Calculating surface distance matrix               ...        done! (  0.0s)
Performing Cholesky decomposition & store         ...        done! (  0.2s)
Overall time for CPCM initialization              ...                 0.2s
--------------
SCF ITERATIONS
--------------
ITER       Energy         Delta-E        Max-DP      RMS-DP      [F,P]     Damp
               ***  Starting incremental Fock matrix formation  ***
  0   -652.1341341908   0.000000000000 0.18957155  0.00119442  0.2647372 0.7000
  1   -652.2714493949  -0.137315204087 0.20304374  0.00113076  0.1298446 0.7000
                               ***Turning on DIIS***
  2   -652.3377389317  -0.066289536772 0.37735441  0.00224264  0.0501136 0.0000
  3   -652.4519079348  -0.114169003173 0.13900081  0.00067364  0.0602986 0.0000
  4   -652.4666536878  -0.014745752901 0.01693836  0.00011634  0.0116207 0.0000
  5   -652.4673550856  -0.000701397832 0.01292766  0.00006330  0.0047855 0.0000
                      *** Initiating the SOSCF procedure ***
                           *** Shutting down DIIS ***
                      *** Re-Reading the Fockian *** 
                      *** Removing any level shift *** 
ITER      Energy       Delta-E        Grad      Rot      Max-DP    RMS-DP
  6   -652.46748187  -0.0001267809  0.001020  0.001020  0.010004  0.000052
               *** Restarting incremental Fock matrix formation ***
  7   -652.46750692  -0.0000250507  0.000254  0.000669  0.007968  0.000037
  8   -652.46751054  -0.0000036253  0.000333  0.001123  0.003589  0.000018
  9   -652.46751225  -0.0000017040  0.000043  0.000096  0.000658  0.000007
 10   -652.46751234  -0.0000000927  0.000033  0.000036  0.000331  0.000003
 11   -652.46751241  -0.0000000702  0.000013  0.000037  0.000168  0.000001
 12   -652.46751242  -0.0000000100  0.000003  0.000015  0.000081  0.000001
                  ***Gradient check signals convergence***
              ***Rediagonalizing the Fockian in SOSCF/NRSCF***

               *****************************************************
               *                     SUCCESS                       *
               *           SCF CONVERGED AFTER  13 CYCLES          *
               *****************************************************

Old exchange energy                            =    -26.522982161 Eh
New exchange energy                            =    -26.522984499 Eh
Exchange energy change after final integration =     -0.000002339 Eh
Total energy after final integration           =   -652.467514756 Eh
Final COS-X integration done in                =     7.919 sec

------------------
NL GRID GENERATION
------------------

General Integration Accuracy     IntAcc      ... 4.004
Radial Grid Type                 RadialGrid  ... OptM3 with GC (2021)
Angular Grid (max. ang.)         AngularGrid ... 2 (Lebedev-110)
Angular grid pruning method      GridPruning ... 4 (adaptive)
Weight generation scheme         WeightScheme... Becke
Basis function cutoff            BFCut       ... 1.0000e-10
Integration weight cutoff        WCut        ... 1.0000e-14
Angular grids for H and He will be reduced by one unit
Partially contracted basis set               ... off
Rotationally invariant grid construction     ... off

Total number of grid points                  ...    38429
Total number of batches                      ...      613
Average number of points per batch           ...       62
Average number of grid points per atom       ...     1478
Final grid set up in    0.2 sec

-------------------------------------------------------------------------------
                    post-SCF DFT-NL dispersion correction                      
-------------------------------------------------------------------------------

SCF Energy:   -652.467514756 
NL    Energy:  0.376772313 
SC+NL Energy: -652.090742443 
NL done in:    1.0 sec
-------------------------------------------------------------------------------

SMD CDS free energy correction energy :                -5.10851     Kcal/mol
Total Energy after SMD CDS correction =              -652.098883366 Eh
Total Energy       :         -652.09888337 Eh          -17744.51273 eV
  Last Energy change         ...    2.1295e-09  Tolerance :   1.0000e-08
  Last MAX-Density change    ...    2.4425e-15  Tolerance :   1.0000e-07
             **** THE GBW FILE WAS UPDATED (conf_000_SP.gbw) ****
             **** DENSITY conf_000_SP.scfp WAS UPDATED ****
             **** ENERGY FILE WAS UPDATED (conf_000_SP.en.tmp) ****
             **** THE GBW FILE WAS UPDATED (conf_000_SP.gbw) ****
             **** DENSITY conf_000_SP.scfp WAS UPDATED ****
----------------
ORBITAL ENERGIES
----------------

  NO   OCC          E(Eh)            E(eV) 
   0   2.0000     -19.348925      -526.5110 
   1   2.0000     -19.328147      -525.9456 
   2   2.0000     -19.322993      -525.8054 
   3   2.0000     -10.439516      -284.0737 
   4   2.0000     -10.434431      -283.9353 
   5   2.0000     -10.411472      -283.3106 
   6   2.0000     -10.402155      -283.0570 
   7   2.0000     -10.381029      -282.4822 
   8   2.0000     -10.363614      -282.0083 
   9   2.0000     -10.353994      -281.7465 
  10   2.0000     -10.351673      -281.6833 
  11   2.0000     -10.349741      -281.6308 
  12   2.0000     -10.349053      -281.6121 
  13   2.0000     -10.347787      -281.5776 
  14   2.0000      -1.195973       -32.5441 
  15   2.0000      -1.178235       -32.0614 
  16   2.0000      -1.167888       -31.7798 
  17   2.0000      -0.970055       -26.3965 
  18   2.0000      -0.916965       -24.9519 
  19   2.0000      -0.909970       -24.7615 
  20   2.0000      -0.883103       -24.0305 
  21   2.0000      -0.838690       -22.8219 
  22   2.0000      -0.757209       -20.6047 
  23   2.0000      -0.754189       -20.5225 
  24   2.0000      -0.734398       -19.9840 
  25   2.0000      -0.682983       -18.5849 
  26   2.0000      -0.653631       -17.7862 
  27   2.0000      -0.634343       -17.2614 
  28   2.0000      -0.621649       -16.9159 
  29   2.0000      -0.609691       -16.5905 
  30   2.0000      -0.581649       -15.8275 
  31   2.0000      -0.580574       -15.7982 
  32   2.0000      -0.559401       -15.2221 
  33   2.0000      -0.541698       -14.7403 
  34   2.0000      -0.536158       -14.5896 
  35   2.0000      -0.526737       -14.3332 
  36   2.0000      -0.517461       -14.0808 
  37   2.0000      -0.508978       -13.8500 
  38   2.0000      -0.502421       -13.6716 
  39   2.0000      -0.486541       -13.2395 
  40   2.0000      -0.479942       -13.0599 
  41   2.0000      -0.458937       -12.4883 
  42   2.0000      -0.455637       -12.3985 
  43   2.0000      -0.450464       -12.2578 
  44   2.0000      -0.436810       -11.8862 
  45   2.0000      -0.435558       -11.8521 
  46   2.0000      -0.423943       -11.5361 
  47   2.0000      -0.396422       -10.7872 
  48   2.0000      -0.358671        -9.7599 
  49   2.0000      -0.355242        -9.6666 
  50   2.0000      -0.338762        -9.2182 
  51   0.0000       0.020549         0.5592 
  52   0.0000       0.062663         1.7052 
  53   0.0000       0.101930         2.7736 
  54   0.0000       0.114532         3.1166 
  55   0.0000       0.118467         3.2237 
  56   0.0000       0.130123         3.5408 
  57   0.0000       0.139513         3.7963 
  58   0.0000       0.150751         4.1021 
  59   0.0000       0.159681         4.3451 
  60   0.0000       0.162099         4.4109 
  61   0.0000       0.167943         4.5700 
  62   0.0000       0.179744         4.8911 
  63   0.0000       0.185935         5.0596 
  64   0.0000       0.190183         5.1751 
  65   0.0000       0.195349         5.3157 
  66   0.0000       0.200067         5.4441 
  67   0.0000       0.216098         5.8803 
  68   0.0000       0.221374         6.0239 
  69   0.0000       0.231367         6.2958 
  70   0.0000       0.245574         6.6824 
  71   0.0000       0.250319         6.8115 
  72   0.0000       0.264449         7.1960 
  73   0.0000       0.265967         7.2373 
  74   0.0000       0.280231         7.6255 
  75   0.0000       0.286676         7.8008 
  76   0.0000       0.293947         7.9987 
  77   0.0000       0.306132         8.3303 
  78   0.0000       0.309608         8.4249 
  79   0.0000       0.311745         8.4830 
  80   0.0000       0.318948         8.6790 
  81   0.0000       0.329715         8.9720 
  82   0.0000       0.334554         9.1037 
  83   0.0000       0.342682         9.3248 
  84   0.0000       0.354313         9.6414 
  85   0.0000       0.360570         9.8116 
  86   0.0000       0.370141        10.0720 
  87   0.0000       0.378502        10.2996 
  88   0.0000       0.387802        10.5526 
  89   0.0000       0.403485        10.9794 
  90   0.0000       0.406791        11.0693 
  91   0.0000       0.413219        11.2442 
  92   0.0000       0.413705        11.2575 
  93   0.0000       0.417660        11.3651 
  94   0.0000       0.431417        11.7394 
  95   0.0000       0.433553        11.7976 
  96   0.0000       0.442625        12.0444 
  97   0.0000       0.445503        12.1227 
  98   0.0000       0.455831        12.4038 
  99   0.0000       0.458994        12.4899 
 100   0.0000       0.464833        12.6488 
 101   0.0000       0.475074        12.9274 
 102   0.0000       0.480008        13.0617 
 103   0.0000       0.484366        13.1803 
 104   0.0000       0.486167        13.2293 
 105   0.0000       0.497683        13.5427 
 106   0.0000       0.505125        13.7452 
 107   0.0000       0.506730        13.7888 
 108   0.0000       0.509511        13.8645 
 109   0.0000       0.515331        14.0229 
 110   0.0000       0.517250        14.0751 
 111   0.0000       0.521285        14.1849 
 112   0.0000       0.523704        14.2507 
 113   0.0000       0.529446        14.4070 
 114   0.0000       0.532301        14.4846 
 115   0.0000       0.535630        14.5752 
 116   0.0000       0.545849        14.8533 
 117   0.0000       0.547363        14.8945 
 118   0.0000       0.555041        15.1034 
 119   0.0000       0.572531        15.5794 
 120   0.0000       0.585111        15.9217 
 121   0.0000       0.588763        16.0210 
 122   0.0000       0.598122        16.2757 
 123   0.0000       0.604760        16.4564 
 124   0.0000       0.611930        16.6515 
 125   0.0000       0.626248        17.0411 
 126   0.0000       0.628588        17.1048 
 127   0.0000       0.638185        17.3659 
 128   0.0000       0.656343        17.8600 
 129   0.0000       0.668085        18.1795 
 130   0.0000       0.681574        18.5466 
 131   0.0000       0.699026        19.0215 
 132   0.0000       0.700737        19.0680 
 133   0.0000       0.706116        19.2144 
 134   0.0000       0.727567        19.7981 
 135   0.0000       0.736477        20.0406 
 136   0.0000       0.748329        20.3631 
 137   0.0000       0.757905        20.6237 
 138   0.0000       0.771282        20.9877 
 139   0.0000       0.773544        21.0492 
 140   0.0000       0.791084        21.5265 
 141   0.0000       0.800098        21.7718 
 142   0.0000       0.803692        21.8696 
 143   0.0000       0.812562        22.1109 
 144   0.0000       0.820119        22.3166 
 145   0.0000       0.832582        22.6557 
 146   0.0000       0.843167        22.9437 
 147   0.0000       0.859458        23.3870 
 148   0.0000       0.871269        23.7084 
 149   0.0000       0.880838        23.9688 
 150   0.0000       0.897949        24.4344 
 151   0.0000       0.906997        24.6806 
 152   0.0000       0.915215        24.9043 
 153   0.0000       0.916748        24.9460 
 154   0.0000       0.929378        25.2897 
 155   0.0000       0.937518        25.5112 
 156   0.0000       0.952999        25.9324 
 157   0.0000       0.956773        26.0351 
 158   0.0000       0.966063        26.2879 
 159   0.0000       0.980797        26.6888 
 160   0.0000       0.984368        26.7860 
 161   0.0000       1.003863        27.3165 
 162   0.0000       1.010528        27.4979 
 163   0.0000       1.013912        27.5900 
 164   0.0000       1.040245        28.3065 
 165   0.0000       1.042182        28.3592 
 166   0.0000       1.049692        28.5636 
 167   0.0000       1.052478        28.6394 
 168   0.0000       1.077101        29.3094 
 169   0.0000       1.085452        29.5366 
 170   0.0000       1.092324        29.7237 
 171   0.0000       1.100460        29.9450 
 172   0.0000       1.104807        30.0633 
 173   0.0000       1.115219        30.3466 
 174   0.0000       1.124923        30.6107 
 175   0.0000       1.132062        30.8050 
 176   0.0000       1.142868        31.0990 
 177   0.0000       1.147871        31.2352 
 178   0.0000       1.160454        31.5776 
 179   0.0000       1.163209        31.6525 
 180   0.0000       1.176676        32.0190 
 181   0.0000       1.178743        32.0752 
 182   0.0000       1.196188        32.5499 
 183   0.0000       1.208071        32.8733 
 184   0.0000       1.211093        32.9555 
 185   0.0000       1.218120        33.1467 
 186   0.0000       1.224876        33.3306 
 187   0.0000       1.234187        33.5839 
 188   0.0000       1.240532        33.7566 
 189   0.0000       1.254176        34.1279 
 190   0.0000       1.261632        34.3308 
 191   0.0000       1.267673        34.4951 
 192   0.0000       1.285560        34.9819 
 193   0.0000       1.288377        35.0585 
 194   0.0000       1.301253        35.4089 
 195   0.0000       1.317514        35.8514 
 196   0.0000       1.322572        35.9890 
 197   0.0000       1.331604        36.2348 
 198   0.0000       1.335449        36.3394 
 199   0.0000       1.337855        36.4049 
 200   0.0000       1.366009        37.1710 
 201   0.0000       1.369010        37.2526 
 202   0.0000       1.385782        37.7090 
 203   0.0000       1.394928        37.9579 
 204   0.0000       1.407584        38.3023 
 205   0.0000       1.427623        38.8476 
 206   0.0000       1.430719        38.9318 
 207   0.0000       1.439964        39.1834 
 208   0.0000       1.454078        39.5675 
 209   0.0000       1.457912        39.6718 
 210   0.0000       1.465984        39.8915 
 211   0.0000       1.477106        40.1941 
 212   0.0000       1.486001        40.4361 
 213   0.0000       1.500287        40.8249 
 214   0.0000       1.503561        40.9140 
 215   0.0000       1.510008        41.0894 
 216   0.0000       1.528450        41.5912 
 217   0.0000       1.532174        41.6926 
 218   0.0000       1.537890        41.8481 
 219   0.0000       1.540339        41.9148 
 220   0.0000       1.546722        42.0885 
 221   0.0000       1.560008        42.4500 
 222   0.0000       1.569693        42.7135 
 223   0.0000       1.579009        42.9670 
 224   0.0000       1.584504        43.1165 
 225   0.0000       1.601150        43.5695 
 226   0.0000       1.621803        44.1315 
 227   0.0000       1.624473        44.2041 
 228   0.0000       1.639699        44.6185 
 229   0.0000       1.645839        44.7856 
 230   0.0000       1.657803        45.1111 
 231   0.0000       1.662894        45.2496 
 232   0.0000       1.670876        45.4668 
 233   0.0000       1.675405        45.5901 
 234   0.0000       1.681751        45.7628 
 235   0.0000       1.718839        46.7720 
 236   0.0000       1.721114        46.8339 
 237   0.0000       1.728133        47.0249 
 238   0.0000       1.733478        47.1703 
 239   0.0000       1.752371        47.6845 
 240   0.0000       1.774890        48.2972 
 241   0.0000       1.786899        48.6240 
 242   0.0000       1.793073        48.7920 
 243   0.0000       1.803988        49.0890 
 244   0.0000       1.809694        49.2443 
 245   0.0000       1.833575        49.8941 
 246   0.0000       1.843547        50.1655 
 247   0.0000       1.853412        50.4339 
 248   0.0000       1.884316        51.2749 
 249   0.0000       1.891957        51.4828 
 250   0.0000       1.902403        51.7670 
 251   0.0000       1.909691        51.9653 
 252   0.0000       1.941239        52.8238 
 253   0.0000       1.944338        52.9081 
 254   0.0000       1.965733        53.4903 
 255   0.0000       1.985576        54.0303 
 256   0.0000       2.005514        54.5728 
 257   0.0000       2.028336        55.1938 
 258   0.0000       2.040159        55.5155 
 259   0.0000       2.057556        55.9889 
 260   0.0000       2.087043        56.7913 
 261   0.0000       2.101592        57.1872 
 262   0.0000       2.111565        57.4586 
 263   0.0000       2.128650        57.9235 
 264   0.0000       2.149365        58.4872 
 265   0.0000       2.160530        58.7910 
 266   0.0000       2.189255        59.5727 
 267   0.0000       2.201654        59.9100 
 268   0.0000       2.213846        60.2418 
 269   0.0000       2.226533        60.5871 
 270   0.0000       2.234963        60.8164 
 271   0.0000       2.255683        61.3802 
 272   0.0000       2.263454        61.5917 
 273   0.0000       2.281734        62.0891 
 274   0.0000       2.303797        62.6895 
 275   0.0000       2.310667        62.8764 
 276   0.0000       2.321466        63.1703 
 277   0.0000       2.339089        63.6498 
 278   0.0000       2.356110        64.1130 
 279   0.0000       2.370999        64.5182 
 280   0.0000       2.383659        64.8627 
 281   0.0000       2.387582        64.9694 
 282   0.0000       2.417063        65.7716 
 283   0.0000       2.426806        66.0367 
 284   0.0000       2.449925        66.6658 
 285   0.0000       2.468020        67.1583 
 286   0.0000       2.476687        67.3941 
 287   0.0000       2.487743        67.6949 
 288   0.0000       2.504985        68.1641 
 289   0.0000       2.537621        69.0522 
 290   0.0000       2.549661        69.3798 
 291   0.0000       2.568926        69.9040 
 292   0.0000       2.582281        70.2674 
 293   0.0000       2.589175        70.4550 
 294   0.0000       2.606247        70.9196 
 295   0.0000       2.617556        71.2273 
 296   0.0000       2.623710        71.3948 
 297   0.0000       2.649605        72.0994 
 298   0.0000       2.655438        72.2581 
 299   0.0000       2.663564        72.4793 
 300   0.0000       2.681285        72.9615 
 301   0.0000       2.698861        73.4397 
 302   0.0000       2.710413        73.7541 
 303   0.0000       2.721677        74.0606 
 304   0.0000       2.730821        74.3094 
 305   0.0000       2.738602        74.5211 
 306   0.0000       2.761348        75.1401 
 307   0.0000       2.762482        75.1709 
 308   0.0000       2.772357        75.4397 
 309   0.0000       2.783560        75.7445 
 310   0.0000       2.810643        76.4815 
 311   0.0000       2.823172        76.8224 
 312   0.0000       2.837442        77.2107 
 313   0.0000       2.843108        77.3649 
 314   0.0000       2.849982        77.5519 
 315   0.0000       2.868339        78.0515 
 316   0.0000       2.877156        78.2914 
 317   0.0000       2.888765        78.6073 
 318   0.0000       2.900176        78.9178 
 319   0.0000       2.903644        79.0122 
 320   0.0000       2.912347        79.2490 
 321   0.0000       2.927938        79.6732 
 322   0.0000       2.944746        80.1306 
 323   0.0000       2.952916        80.3529 
 324   0.0000       2.962697        80.6191 
 325   0.0000       2.982521        81.1585 
 326   0.0000       2.990709        81.3813 
 327   0.0000       3.001081        81.6636 
 328   0.0000       3.009375        81.8893 
 329   0.0000       3.024318        82.2959 
 330   0.0000       3.028650        82.4138 
 331   0.0000       3.038455        82.6806 
 332   0.0000       3.061033        83.2949 
 333   0.0000       3.065596        83.4191 
 334   0.0000       3.072837        83.6161 
 335   0.0000       3.076406        83.7133 
 336   0.0000       3.100111        84.3583 
 337   0.0000       3.116034        84.7916 
 338   0.0000       3.124781        85.0296 
 339   0.0000       3.132433        85.2378 
 340   0.0000       3.140005        85.4439 
 341   0.0000       3.144297        85.5607 
 342   0.0000       3.153597        85.8137 
 343   0.0000       3.158742        85.9537 
 344   0.0000       3.172497        86.3280 
 345   0.0000       3.190211        86.8101 
 346   0.0000       3.195309        86.9488 
 347   0.0000       3.201439        87.1156 
 348   0.0000       3.208038        87.2951 
 349   0.0000       3.218363        87.5761 
 350   0.0000       3.221675        87.6662 
 351   0.0000       3.227874        87.8349 
 352   0.0000       3.245781        88.3222 
 353   0.0000       3.248128        88.3860 
 354   0.0000       3.257179        88.6323 
 355   0.0000       3.267780        88.9208 
 356   0.0000       3.279177        89.2310 
 357   0.0000       3.287301        89.4520 
 358   0.0000       3.299599        89.7867 
 359   0.0000       3.308266        90.0225 
 360   0.0000       3.317075        90.2622 
 361   0.0000       3.325633        90.4951 
 362   0.0000       3.325872        90.5016 
 363   0.0000       3.332157        90.6726 
 364   0.0000       3.343424        90.9792 
 365   0.0000       3.347413        91.0878 
 366   0.0000       3.365552        91.5813 
 367   0.0000       3.371906        91.7542 
 368   0.0000       3.374544        91.8260 
 369   0.0000       3.390242        92.2532 
 370   0.0000       3.396215        92.4157 
 371   0.0000       3.412284        92.8530 
 372   0.0000       3.424017        93.1722 
 373   0.0000       3.431798        93.3840 
 374   0.0000       3.445684        93.7618 
 375   0.0000       3.448910        93.8496 
 376   0.0000       3.463499        94.2466 
 377   0.0000       3.470008        94.4237 
 378   0.0000       3.475155        94.5638 
 379   0.0000       3.488663        94.9314 
 380   0.0000       3.502039        95.2953 
 381   0.0000       3.513126        95.5970 
 382   0.0000       3.539114        96.3042 
 383   0.0000       3.547897        96.5432 
 384   0.0000       3.548828        96.5685 
 385   0.0000       3.563655        96.9720 
 386   0.0000       3.569595        97.1336 
 387   0.0000       3.579059        97.3911 
 388   0.0000       3.584270        97.5330 
 389   0.0000       3.599576        97.9494 
 390   0.0000       3.619749        98.4984 
 391   0.0000       3.627793        98.7173 
 392   0.0000       3.636087        98.9430 
 393   0.0000       3.650359        99.3313 
 394   0.0000       3.657685        99.5307 
 395   0.0000       3.666555        99.7720 
 396   0.0000       3.673171        99.9521 
 397   0.0000       3.684919       100.2717 
 398   0.0000       3.696563       100.5886 
 399   0.0000       3.696934       100.5987 
 400   0.0000       3.719134       101.2028 
 401   0.0000       3.721971       101.2800 
 402   0.0000       3.731408       101.5368 
 403   0.0000       3.742609       101.8416 
 404   0.0000       3.744263       101.8866 
 405   0.0000       3.752968       102.1235 
 406   0.0000       3.774154       102.6999 
 407   0.0000       3.779278       102.8394 
 408   0.0000       3.802666       103.4758 
 409   0.0000       3.807884       103.6178 
 410   0.0000       3.828343       104.1745 
 411   0.0000       3.833942       104.3269 
 412   0.0000       3.846076       104.6570 
 413   0.0000       3.849553       104.7517 
 414   0.0000       3.861703       105.0823 
 415   0.0000       3.872841       105.3854 
 416   0.0000       3.875583       105.4600 
 417   0.0000       3.889179       105.8299 
 418   0.0000       3.894127       105.9646 
 419   0.0000       3.904138       106.2370 
 420   0.0000       3.915102       106.5353 
 421   0.0000       3.921375       106.7060 
 422   0.0000       3.933002       107.0224 
 423   0.0000       3.938222       107.1645 
 424   0.0000       3.957411       107.6866 
 425   0.0000       3.963994       107.8658 
 426   0.0000       3.972062       108.0853 
 427   0.0000       3.976805       108.2144 
 428   0.0000       3.987444       108.5039 
 429   0.0000       4.006283       109.0165 
 430   0.0000       4.021505       109.4307 
 431   0.0000       4.026999       109.5802 
 432   0.0000       4.034515       109.7847 
 433   0.0000       4.045013       110.0704 
 434   0.0000       4.060113       110.4813 
 435   0.0000       4.069331       110.7321 
 436   0.0000       4.079356       111.0049 
 437   0.0000       4.086611       111.2024 
 438   0.0000       4.108097       111.7870 
 439   0.0000       4.118699       112.0755 
 440   0.0000       4.128018       112.3291 
 441   0.0000       4.137685       112.5921 
 442   0.0000       4.146778       112.8396 
 443   0.0000       4.154694       113.0550 
 444   0.0000       4.157632       113.1349 
 445   0.0000       4.161492       113.2400 
 446   0.0000       4.181725       113.7905 
 447   0.0000       4.184671       113.8707 
 448   0.0000       4.192027       114.0708 
 449   0.0000       4.207997       114.5054 
 450   0.0000       4.214943       114.6944 
 451   0.0000       4.225403       114.9790 
 452   0.0000       4.233046       115.1870 
 453   0.0000       4.242967       115.4570 
 454   0.0000       4.262663       115.9930 
 455   0.0000       4.276790       116.3774 
 456   0.0000       4.285350       116.6103 
 457   0.0000       4.286705       116.6472 
 458   0.0000       4.304397       117.1286 
 459   0.0000       4.310762       117.3018 
 460   0.0000       4.319927       117.5512 
 461   0.0000       4.345450       118.2457 
 462   0.0000       4.354692       118.4972 
 463   0.0000       4.360001       118.6417 
 464   0.0000       4.378550       119.1464 
 465   0.0000       4.387117       119.3795 
 466   0.0000       4.402083       119.7868 
 467   0.0000       4.416194       120.1708 
 468   0.0000       4.420551       120.2893 
 469   0.0000       4.429801       120.5410 
 470   0.0000       4.445331       120.9636 
 471   0.0000       4.459465       121.3482 
 472   0.0000       4.469017       121.6081 
 473   0.0000       4.478040       121.8537 
 474   0.0000       4.489534       122.1664 
 475   0.0000       4.518597       122.9573 
 476   0.0000       4.534278       123.3840 
 477   0.0000       4.537853       123.4813 
 478   0.0000       4.548851       123.7805 
 479   0.0000       4.566997       124.2743 
 480   0.0000       4.585516       124.7782 
 481   0.0000       4.607810       125.3849 
 482   0.0000       4.614882       125.5773 
 483   0.0000       4.625214       125.8585 
 484   0.0000       4.645121       126.4002 
 485   0.0000       4.649205       126.5113 
 486   0.0000       4.687184       127.5448 
 487   0.0000       4.692064       127.6775 
 488   0.0000       4.721199       128.4703 
 489   0.0000       4.741684       129.0278 
 490   0.0000       4.752165       129.3130 
 491   0.0000       4.757699       129.4636 
 492   0.0000       4.783312       130.1605 
 493   0.0000       4.788299       130.2962 
 494   0.0000       4.811250       130.9208 
 495   0.0000       4.813510       130.9823 
 496   0.0000       4.849378       131.9583 
 497   0.0000       4.859098       132.2228 
 498   0.0000       4.879120       132.7676 
 499   0.0000       4.894147       133.1765 
 500   0.0000       4.896417       133.2383 
 501   0.0000       4.901677       133.3814 
 502   0.0000       4.928129       134.1012 
 503   0.0000       4.938732       134.3897 
 504   0.0000       4.956313       134.8681 
 505   0.0000       4.961354       135.0053 
 506   0.0000       4.967094       135.1615 
 507   0.0000       4.979082       135.4877 
 508   0.0000       5.003136       136.1422 
 509   0.0000       5.011686       136.3749 
 510   0.0000       5.020421       136.6126 
 511   0.0000       5.036714       137.0560 
 512   0.0000       5.048202       137.3686 
 513   0.0000       5.067947       137.9058 
 514   0.0000       5.080384       138.2443 
 515   0.0000       5.097635       138.7137 
 516   0.0000       5.103213       138.8655 
 517   0.0000       5.123869       139.4276 
 518   0.0000       5.143963       139.9743 
 519   0.0000       5.176242       140.8527 
 520   0.0000       5.185419       141.1024 
 521   0.0000       5.199146       141.4760 
 522   0.0000       5.216157       141.9388 
 523   0.0000       5.244209       142.7022 
 524   0.0000       5.251009       142.8872 
 525   0.0000       5.259555       143.1198 
 526   0.0000       5.271764       143.4520 
 527   0.0000       5.286460       143.8519 
 528   0.0000       5.313281       144.5817 
 529   0.0000       5.318623       144.7271 
 530   0.0000       5.325223       144.9067 
 531   0.0000       5.343172       145.3951 
 532   0.0000       5.355493       145.7304 
 533   0.0000       5.365203       145.9946 
 534   0.0000       5.375398       146.2720 
 535   0.0000       5.397187       146.8649 
 536   0.0000       5.418880       147.4552 
 537   0.0000       5.452108       148.3594 
 538   0.0000       5.467476       148.7776 
 539   0.0000       5.475853       149.0055 
 540   0.0000       5.490633       149.4077 
 541   0.0000       5.521463       150.2467 
 542   0.0000       5.535332       150.6241 
 543   0.0000       5.548878       150.9926 
 544   0.0000       5.557917       151.2386 
 545   0.0000       5.579704       151.8315 
 546   0.0000       5.601278       152.4185 
 547   0.0000       5.628815       153.1678 
 548   0.0000       5.639699       153.4640 
 549   0.0000       5.673617       154.3870 
 550   0.0000       5.701606       155.1486 
 551   0.0000       5.706302       155.2764 
 552   0.0000       5.713014       155.4590 
 553   0.0000       5.719122       155.6252 
 554   0.0000       5.744297       156.3103 
 555   0.0000       5.750450       156.4777 
 556   0.0000       5.777628       157.2173 
 557   0.0000       5.787062       157.4740 
 558   0.0000       5.841890       158.9659 
 559   0.0000       5.853972       159.2947 
 560   0.0000       5.868780       159.6976 
 561   0.0000       5.899293       160.5279 
 562   0.0000       5.967284       162.3781 
 563   0.0000       6.037418       164.2865 
 564   0.0000       6.118087       166.4816 
 565   0.0000       6.295246       171.3024 
 566   0.0000       6.318796       171.9432 
 567   0.0000       6.443268       175.3302 
 568   0.0000       6.492681       176.6748 
 569   0.0000       6.508168       177.0962 
 570   0.0000       6.525154       177.5585 
 571   0.0000       6.556008       178.3981 
 572   0.0000       6.602262       179.6567 
 573   0.0000       6.684013       181.8813 
 574   0.0000       6.707019       182.5073 
 575   0.0000       6.718406       182.8171 
 576   0.0000       6.799428       185.0218 
 577   0.0000       6.936977       188.7648 
 578   0.0000       6.970103       189.6661 
 579   0.0000       6.980812       189.9576 
 580   0.0000       7.035077       191.4342 
 581   0.0000       7.134627       194.1431 
 582   0.0000       7.170845       195.1286 
 583   0.0000       7.188690       195.6142 
 584   0.0000       7.218227       196.4179 
 585   0.0000       7.223253       196.5547 
 586   0.0000       7.492022       203.8683 
 587   0.0000       7.519925       204.6276 
 588   0.0000      23.090785       628.3322 
 589   0.0000      23.224490       631.9705 
 590   0.0000      23.459538       638.3665 
 591   0.0000      23.492349       639.2593 
 592   0.0000      23.550291       640.8360 
 593   0.0000      23.577627       641.5798 
 594   0.0000      23.650761       643.5699 
 595   0.0000      23.691099       644.6676 
 596   0.0000      23.722612       645.5251 
 597   0.0000      23.753977       646.3786 
 598   0.0000      23.861633       649.3080 
 599   0.0000      44.400034      1208.1863 
 600   0.0000      44.461500      1209.8589 
 601   0.0000      44.882327      1221.3102 
Total SCF time: 0 days 0 hours 1 min 58 sec 

Maximum memory used throughout the entire SCF-calculation: 120.7 MB

-------------------------   --------------------
FINAL SINGLE POINT ENERGY      -652.098883366228
-------------------------   --------------------


                            ***************************************
                            *     ORCA property calculations      *
                            ***************************************

                                    ---------------------
                                    Active property flags
                                    ---------------------
   (+) Dipole Moment


------------------------------------------------------------------------------
                       ORCA ELECTRIC PROPERTIES CALCULATION
------------------------------------------------------------------------------

Dipole Moment Calculation                       ... on
Quadrupole Moment Calculation                   ... off
Polarizability Calculation                      ... off
GBWName                                         ... conf_000_SP.gbw
Electron density                                ... conf_000_SP.scfp
The origin for moment calculation is the CENTER OF MASS  = ( 0.097370,  0.014560 -0.024769)

-------------
DIPOLE MOMENT
-------------
                                X             Y             Z
Electronic contribution:      7.64105       1.18782      -0.68492
Nuclear contribution   :     -9.93178      -1.48507       2.52645
                        -----------------------------------------
Total Dipole Moment    :     -2.29073      -0.29725       1.84152
                        -----------------------------------------
Magnitude (a.u.)       :      2.95415
Magnitude (Debye)      :      7.50886



--------------------
Rotational spectrum 
--------------------
 
Rotational constants in cm-1:     0.038218     0.022106     0.019419 
Rotational constants in MHz :  1145.749325   662.731354   582.172134 

 Dipole components along the rotational axes: 
x,y,z [a.u.] :    -2.265827    -0.497030     1.829207 
x,y,z [Debye]:    -5.759274    -1.263351     4.649474 

 

Timings for individual modules:

Sum of individual times         ...      123.826 sec (=   2.064 min)
GTO integral calculation        ...        3.366 sec (=   0.056 min)   2.7 %
SCF iterations                  ...      120.460 sec (=   2.008 min)  97.3 %
                             ****ORCA TERMINATED NORMALLY****
TOTAL RUN TIME: 0 days 0 hours 2 minutes 8 seconds 30 msec
