 Entering Gaussian System, Link 0=g16
 Initial command:
 /root/g16/l1.exe "/root/g16/scratch/gau_root_3031385/Gau-3031392.inp" -scrdir="/root/g16/scratch/gau_root_3031385/"
 Entering Link 1 = /root/g16/l1.exe PID=   3031394.
  
 Copyright (c) 1988,1990,1992,1993,1995,1998,2003,2009,2016,
            Gaussian, Inc.  All Rights Reserved.
  
 This is part of the Gaussian(R) 16 program.  It is based on
 the Gaussian(R) 09 system (copyright 2009, Gaussian, Inc.),
 the Gaussian(R) 03 system (copyright 2003, Gaussian, Inc.),
 the Gaussian(R) 98 system (copyright 1998, Gaussian, Inc.),
 the Gaussian(R) 94 system (copyright 1995, Gaussian, Inc.),
 the Gaussian 92(TM) system (copyright 1992, Gaussian, Inc.),
 the Gaussian 90(TM) system (copyright 1990, Gaussian, Inc.),
 the Gaussian 88(TM) system (copyright 1988, Gaussian, Inc.),
 the Gaussian 86(TM) system (copyright 1986, Carnegie Mellon
 University), and the Gaussian 82(TM) system (copyright 1983,
 Carnegie Mellon University). Gaussian is a federally registered
 trademark of Gaussian, Inc.
  
 This software contains proprietary and confidential information,
 including trade secrets, belonging to Gaussian, Inc.
  
 This software is provided under written license and may be
 used, copied, transmitted, or stored only in accord with that
 written license.
  
 The following legend is applicable only to US Government
 contracts under FAR:
  
                    RESTRICTED RIGHTS LEGEND
  
 Use, reproduction and disclosure by the US Government is
 subject to restrictions as set forth in subparagraphs (a)
 and (c) of the Commercial Computer Software - Restricted
 Rights clause in FAR 52.227-19.
  
 Gaussian, Inc.
 340 Quinnipiac St., Bldg. 40, Wallingford CT 06492
  
  
 ---------------------------------------------------------------
 Warning -- This program may not be used in any manner that
 competes with the business of Gaussian, Inc. or will provide
 assistance to any competitor of Gaussian, Inc.  The licensee
 of this program is prohibited from giving any competitor of
 Gaussian, Inc. access to this program.  By using this program,
 the user acknowledges that Gaussian, Inc. is engaged in the
 business of creating and licensing software in the field of
 computational chemistry and represents and warrants to the
 licensee that it is not a competitor of Gaussian, Inc. and that
 it will not use this program in any manner prohibited above.
 ---------------------------------------------------------------
  

 Cite this work as:
 Gaussian 16, Revision A.03,
 M. J. Frisch, G. W. Trucks, H. B. Schlegel, G. E. Scuseria, 
 M. A. Robb, J. R. Cheeseman, G. Scalmani, V. Barone, 
 G. A. Petersson, H. Nakatsuji, X. Li, M. Caricato, A. V. Marenich, 
 J. Bloino, B. G. Janesko, R. Gomperts, B. Mennucci, H. P. Hratchian, 
 J. V. Ortiz, A. F. Izmaylov, J. L. Sonnenberg, D. Williams-Young, 
 F. Ding, F. Lipparini, F. Egidi, J. Goings, B. Peng, A. Petrone, 
 T. Henderson, D. Ranasinghe, V. G. Zakrzewski, J. Gao, N. Rega, 
 G. Zheng, W. Liang, M. Hada, M. Ehara, K. Toyota, R. Fukuda, 
 J. Hasegawa, M. Ishida, T. Nakajima, Y. Honda, O. Kitao, H. Nakai, 
 T. Vreven, K. Throssell, J. A. Montgomery, Jr., J. E. Peralta, 
 F. Ogliaro, M. J. Bearpark, J. J. Heyd, E. N. Brothers, K. N. Kudin, 
 V. N. Staroverov, T. A. Keith, R. Kobayashi, J. Normand, 
 K. Raghavachari, A. P. Rendell, J. C. Burant, S. S. Iyengar, 
 J. Tomasi, M. Cossi, J. M. Millam, M. Klene, C. Adamo, R. Cammi, 
 J. W. Ochterski, R. L. Martin, K. Morokuma, O. Farkas, 
 J. B. Foresman, and D. J. Fox, Gaussian, Inc., Wallingford CT, 2016.
 
 ******************************************
 Gaussian 16:  ES64L-G16RevA.03 25-Dec-2016
                29-Jan-2026 
 ******************************************
 %chk=conf_002.chk
 %mem=32GB
 %nprocshared=16
 Will use up to   16 processors via shared memory.
 --------------------------------------------------------------------
 #p B3LYP/def2SVP em=GD3BJ SCRF=(PCM,Solvent=Acetone) Opt=CalcFC Freq
 --------------------------------------------------------------------
 1/10=4,18=20,19=15,26=3,38=1/1,3;
 2/9=110,12=2,17=6,18=5,40=1/2;
 3/5=43,7=101,11=2,25=1,30=1,70=2201,71=2,72=19,74=-5,124=41,140=1/1,2,3;
 4//1;
 5/5=2,38=5,53=19/2;
 8/6=4,10=90,11=11/1;
 11/6=1,8=1,9=11,15=111,16=1/1,2,10;
 10/6=1,13=1/2;
 6/7=2,8=2,9=2,10=2,28=1/1;
 7/10=1,18=20,25=1/1,2,3,16;
 1/10=4,18=20,19=15,26=3/3(2);
 2/9=110/2;
 99//99;
 2/9=110/2;
 3/5=43,7=101,11=2,25=1,30=1,70=2205,71=1,72=19,74=-5,124=41/1,2,3;
 4/5=5,16=3,69=1/1;
 5/5=2,38=5,53=19/2;
 7//1,2,3,16;
 1/18=20,19=15,26=3/3(-5);
 2/9=110/2;
 6/7=2,8=2,9=2,10=2,19=2,28=1/1;
 99/9=1/99;
 Leave Link    1 at Thu Jan 29 20:37:38 2026, MaxMem=  4294967296 cpu:               0.5 elap:               0.0
 (Enter /root/g16/l101.exe)
 ----------------
 product_conf_002
 ----------------
 Symbolic Z-matrix:
 Charge =  0 Multiplicity = 1
 O                     3.02215   0.84609   1.30747 
 C                     2.07712   0.70274   0.55699 
 C                     0.8881    1.5497    0.55186 
 C                    -0.13532   1.28349  -0.27335 
 C                    -1.4492    1.98349  -0.23194 
 C                    -2.57827   0.95063  -0.10657 
 C                    -2.23472  -0.14547   0.91232 
 C                    -1.56607  -1.35986   0.31078 
 O                    -1.98172  -2.47299   0.5395 
 C                    -0.34191  -1.20647  -0.57426 
 C                     0.9636   -1.48815   0.20345 
 C                     1.95782  -0.46604  -0.41805 
 O                     1.35112  -0.02615  -1.6145 
 C                    -0.00299   0.14834  -1.24951 
 H                     0.86091   2.36991   1.25476 
 H                    -1.47182   2.67028   0.61503 
 H                    -1.58764   2.5652   -1.14634 
 H                    -2.78811   0.49186  -1.07367 
 H                    -3.48417   1.46388   0.21556 
 H                    -3.14022  -0.50517   1.40528 
 H                    -1.57493   0.26067   1.68324 
 H                    -0.43122  -1.95479  -1.36846 
 H                     0.84744  -1.31586   1.27432 
 H                     1.30307  -2.51025   0.05632 
 H                     2.93528  -0.88974  -0.65077 
 H                    -0.57173   0.32827  -2.16268 
 
 ITRead=  0  0  0  0  0  0  0  0  0  0  0  0  0  0  0  0  0  0  0  0
 ITRead=  0  0  0  0  0  0
 MicOpt= -1 -1 -1 -1 -1 -1 -1 -1 -1 -1 -1 -1 -1 -1 -1 -1 -1 -1 -1 -1
 MicOpt= -1 -1 -1 -1 -1 -1
 NAtoms=     26 NQM=       26 NQMF=       0 NMMI=      0 NMMIF=      0
                NMic=       0 NMicF=      0.
                    Isotopes and Nuclear Properties:
 (Nuclear quadrupole moments (NQMom) in fm**2, nuclear magnetic moments (NMagM)
  in nuclear magnetons)

  Atom         1           2           3           4           5           6           7           8           9          10
 IAtWgt=          16          12          12          12          12          12          12          12          16          12
 AtmWgt=  15.9949146  12.0000000  12.0000000  12.0000000  12.0000000  12.0000000  12.0000000  12.0000000  15.9949146  12.0000000
 NucSpn=           0           0           0           0           0           0           0           0           0           0
 AtZEff=  -0.0000000  -0.0000000  -0.0000000  -0.0000000  -0.0000000  -0.0000000  -0.0000000  -0.0000000  -0.0000000  -0.0000000
 NQMom=    0.0000000   0.0000000   0.0000000   0.0000000   0.0000000   0.0000000   0.0000000   0.0000000   0.0000000   0.0000000
 NMagM=    0.0000000   0.0000000   0.0000000   0.0000000   0.0000000   0.0000000   0.0000000   0.0000000   0.0000000   0.0000000
 AtZNuc=   8.0000000   6.0000000   6.0000000   6.0000000   6.0000000   6.0000000   6.0000000   6.0000000   8.0000000   6.0000000

  Atom        11          12          13          14          15          16          17          18          19          20
 IAtWgt=          12          12          16          12           1           1           1           1           1           1
 AtmWgt=  12.0000000  12.0000000  15.9949146  12.0000000   1.0078250   1.0078250   1.0078250   1.0078250   1.0078250   1.0078250
 NucSpn=           0           0           0           0           1           1           1           1           1           1
 AtZEff=  -0.0000000  -0.0000000  -0.0000000  -0.0000000  -0.0000000  -0.0000000  -0.0000000  -0.0000000  -0.0000000  -0.0000000
 NQMom=    0.0000000   0.0000000   0.0000000   0.0000000   0.0000000   0.0000000   0.0000000   0.0000000   0.0000000   0.0000000
 NMagM=    0.0000000   0.0000000   0.0000000   0.0000000   2.7928460   2.7928460   2.7928460   2.7928460   2.7928460   2.7928460
 AtZNuc=   6.0000000   6.0000000   8.0000000   6.0000000   1.0000000   1.0000000   1.0000000   1.0000000   1.0000000   1.0000000

  Atom        21          22          23          24          25          26
 IAtWgt=           1           1           1           1           1           1
 AtmWgt=   1.0078250   1.0078250   1.0078250   1.0078250   1.0078250   1.0078250
 NucSpn=           1           1           1           1           1           1
 AtZEff=  -0.0000000  -0.0000000  -0.0000000  -0.0000000  -0.0000000  -0.0000000
 NQMom=    0.0000000   0.0000000   0.0000000   0.0000000   0.0000000   0.0000000
 NMagM=    2.7928460   2.7928460   2.7928460   2.7928460   2.7928460   2.7928460
 AtZNuc=   1.0000000   1.0000000   1.0000000   1.0000000   1.0000000   1.0000000
 Leave Link  101 at Thu Jan 29 20:37:39 2026, MaxMem=  4294967296 cpu:               4.9 elap:               0.3
 (Enter /root/g16/l103.exe)

 GradGradGradGradGradGradGradGradGradGradGradGradGradGradGradGradGradGrad
 Berny optimization.
 Initialization pass.
                           ----------------------------
                           !    Initial Parameters    !
                           ! (Angstroms and Degrees)  !
 --------------------------                            --------------------------
 ! Name  Definition              Value          Derivative Info.                !
 --------------------------------------------------------------------------------
 ! R1    R(1,2)                  1.2152         calculate D2E/DX2 analytically  !
 ! R2    R(2,3)                  1.4598         calculate D2E/DX2 analytically  !
 ! R3    R(2,12)                 1.5268         calculate D2E/DX2 analytically  !
 ! R4    R(3,4)                  1.3414         calculate D2E/DX2 analytically  !
 ! R5    R(3,15)                 1.0805         calculate D2E/DX2 analytically  !
 ! R6    R(4,5)                  1.4893         calculate D2E/DX2 analytically  !
 ! R7    R(4,14)                 1.503          calculate D2E/DX2 analytically  !
 ! R8    R(5,6)                  1.5354         calculate D2E/DX2 analytically  !
 ! R9    R(5,16)                 1.0907         calculate D2E/DX2 analytically  !
 ! R10   R(5,17)                 1.0926         calculate D2E/DX2 analytically  !
 ! R11   R(6,7)                  1.5355         calculate D2E/DX2 analytically  !
 ! R12   R(6,18)                 1.0908         calculate D2E/DX2 analytically  !
 ! R13   R(6,19)                 1.0899         calculate D2E/DX2 analytically  !
 ! R14   R(7,8)                  1.5112         calculate D2E/DX2 analytically  !
 ! R15   R(7,20)                 1.0919         calculate D2E/DX2 analytically  !
 ! R16   R(7,21)                 1.093          calculate D2E/DX2 analytically  !
 ! R17   R(8,9)                  1.21           calculate D2E/DX2 analytically  !
 ! R18   R(8,10)                 1.5184         calculate D2E/DX2 analytically  !
 ! R19   R(10,11)                1.5455         calculate D2E/DX2 analytically  !
 ! R20   R(10,14)                1.5512         calculate D2E/DX2 analytically  !
 ! R21   R(10,22)                1.0949         calculate D2E/DX2 analytically  !
 ! R22   R(11,12)                1.5555         calculate D2E/DX2 analytically  !
 ! R23   R(11,23)                1.0908         calculate D2E/DX2 analytically  !
 ! R24   R(11,24)                1.087          calculate D2E/DX2 analytically  !
 ! R25   R(12,13)                1.4118         calculate D2E/DX2 analytically  !
 ! R26   R(12,25)                1.0905         calculate D2E/DX2 analytically  !
 ! R27   R(13,14)                1.4133         calculate D2E/DX2 analytically  !
 ! R28   R(14,26)                1.0907         calculate D2E/DX2 analytically  !
 ! A1    A(1,2,3)              124.549          calculate D2E/DX2 analytically  !
 ! A2    A(1,2,12)             123.0558         calculate D2E/DX2 analytically  !
 ! A3    A(3,2,12)             112.2252         calculate D2E/DX2 analytically  !
 ! A4    A(2,3,4)              120.5609         calculate D2E/DX2 analytically  !
 ! A5    A(2,3,15)             117.2974         calculate D2E/DX2 analytically  !
 ! A6    A(4,3,15)             122.1167         calculate D2E/DX2 analytically  !
 ! A7    A(3,4,5)              124.2444         calculate D2E/DX2 analytically  !
 ! A8    A(3,4,14)             118.8346         calculate D2E/DX2 analytically  !
 ! A9    A(5,4,14)             116.7899         calculate D2E/DX2 analytically  !
 ! A10   A(4,5,6)              109.5632         calculate D2E/DX2 analytically  !
 ! A11   A(4,5,16)             109.6245         calculate D2E/DX2 analytically  !
 ! A12   A(4,5,17)             109.8018         calculate D2E/DX2 analytically  !
 ! A13   A(6,5,16)             110.1787         calculate D2E/DX2 analytically  !
 ! A14   A(6,5,17)             109.4719         calculate D2E/DX2 analytically  !
 ! A15   A(16,5,17)            108.1815         calculate D2E/DX2 analytically  !
 ! A16   A(5,6,7)              111.7079         calculate D2E/DX2 analytically  !
 ! A17   A(5,6,18)             110.6105         calculate D2E/DX2 analytically  !
 ! A18   A(5,6,19)             108.5772         calculate D2E/DX2 analytically  !
 ! A19   A(7,6,18)             109.3377         calculate D2E/DX2 analytically  !
 ! A20   A(7,6,19)             109.0275         calculate D2E/DX2 analytically  !
 ! A21   A(18,6,19)            107.4704         calculate D2E/DX2 analytically  !
 ! A22   A(6,7,8)              114.1118         calculate D2E/DX2 analytically  !
 ! A23   A(6,7,20)             110.4373         calculate D2E/DX2 analytically  !
 ! A24   A(6,7,21)             109.746          calculate D2E/DX2 analytically  !
 ! A25   A(8,7,20)             106.3742         calculate D2E/DX2 analytically  !
 ! A26   A(8,7,21)             108.1967         calculate D2E/DX2 analytically  !
 ! A27   A(20,7,21)            107.7326         calculate D2E/DX2 analytically  !
 ! A28   A(7,8,9)              120.7985         calculate D2E/DX2 analytically  !
 ! A29   A(7,8,10)             120.5028         calculate D2E/DX2 analytically  !
 ! A30   A(9,8,10)             118.6898         calculate D2E/DX2 analytically  !
 ! A31   A(8,10,11)            111.6733         calculate D2E/DX2 analytically  !
 ! A32   A(8,10,14)            121.206          calculate D2E/DX2 analytically  !
 ! A33   A(8,10,22)            106.7391         calculate D2E/DX2 analytically  !
 ! A34   A(11,10,14)           101.167          calculate D2E/DX2 analytically  !
 ! A35   A(11,10,22)           108.0206         calculate D2E/DX2 analytically  !
 ! A36   A(14,10,22)           107.3977         calculate D2E/DX2 analytically  !
 ! A37   A(10,11,12)           102.6561         calculate D2E/DX2 analytically  !
 ! A38   A(10,11,23)           112.0403         calculate D2E/DX2 analytically  !
 ! A39   A(10,11,24)           111.5349         calculate D2E/DX2 analytically  !
 ! A40   A(12,11,23)           110.8869         calculate D2E/DX2 analytically  !
 ! A41   A(12,11,24)           111.357          calculate D2E/DX2 analytically  !
 ! A42   A(23,11,24)           108.3398         calculate D2E/DX2 analytically  !
 ! A43   A(2,12,11)            107.3264         calculate D2E/DX2 analytically  !
 ! A44   A(2,12,13)            109.6505         calculate D2E/DX2 analytically  !
 ! A45   A(2,12,25)            111.3273         calculate D2E/DX2 analytically  !
 ! A46   A(11,12,13)           105.5863         calculate D2E/DX2 analytically  !
 ! A47   A(11,12,25)           113.7596         calculate D2E/DX2 analytically  !
 ! A48   A(13,12,25)           108.9904         calculate D2E/DX2 analytically  !
 ! A49   A(12,13,14)           103.3771         calculate D2E/DX2 analytically  !
 ! A50   A(4,14,10)            110.9577         calculate D2E/DX2 analytically  !
 ! A51   A(4,14,13)            110.2029         calculate D2E/DX2 analytically  !
 ! A52   A(4,14,26)            111.9161         calculate D2E/DX2 analytically  !
 ! A53   A(10,14,13)           102.3527         calculate D2E/DX2 analytically  !
 ! A54   A(10,14,26)           113.2397         calculate D2E/DX2 analytically  !
 ! A55   A(13,14,26)           107.6831         calculate D2E/DX2 analytically  !
 ! D1    D(1,2,3,4)           -177.0666         calculate D2E/DX2 analytically  !
 ! D2    D(1,2,3,15)             1.1519         calculate D2E/DX2 analytically  !
 ! D3    D(12,2,3,4)            -1.6934         calculate D2E/DX2 analytically  !
 ! D4    D(12,2,3,15)          176.5251         calculate D2E/DX2 analytically  !
 ! D5    D(1,2,12,11)          101.9281         calculate D2E/DX2 analytically  !
 ! D6    D(1,2,12,13)         -143.8505         calculate D2E/DX2 analytically  !
 ! D7    D(1,2,12,25)          -23.1633         calculate D2E/DX2 analytically  !
 ! D8    D(3,2,12,11)          -73.5253         calculate D2E/DX2 analytically  !
 ! D9    D(3,2,12,13)           40.6961         calculate D2E/DX2 analytically  !
 ! D10   D(3,2,12,25)          161.3833         calculate D2E/DX2 analytically  !
 ! D11   D(2,3,4,5)            172.0827         calculate D2E/DX2 analytically  !
 ! D12   D(2,3,4,14)            -3.6139         calculate D2E/DX2 analytically  !
 ! D13   D(15,3,4,5)            -6.0481         calculate D2E/DX2 analytically  !
 ! D14   D(15,3,4,14)          178.2553         calculate D2E/DX2 analytically  !
 ! D15   D(3,4,5,6)           -125.8259         calculate D2E/DX2 analytically  !
 ! D16   D(3,4,5,16)            -4.804          calculate D2E/DX2 analytically  !
 ! D17   D(3,4,5,17)           113.9124         calculate D2E/DX2 analytically  !
 ! D18   D(14,4,5,6)            49.9511         calculate D2E/DX2 analytically  !
 ! D19   D(14,4,5,16)          170.9731         calculate D2E/DX2 analytically  !
 ! D20   D(14,4,5,17)          -70.3106         calculate D2E/DX2 analytically  !
 ! D21   D(3,4,14,10)           82.9599         calculate D2E/DX2 analytically  !
 ! D22   D(3,4,14,13)          -29.6868         calculate D2E/DX2 analytically  !
 ! D23   D(3,4,14,26)         -149.4837         calculate D2E/DX2 analytically  !
 ! D24   D(5,4,14,10)          -93.0555         calculate D2E/DX2 analytically  !
 ! D25   D(5,4,14,13)          154.2978         calculate D2E/DX2 analytically  !
 ! D26   D(5,4,14,26)           34.5009         calculate D2E/DX2 analytically  !
 ! D27   D(4,5,6,7)             43.1854         calculate D2E/DX2 analytically  !
 ! D28   D(4,5,6,18)           -78.8542         calculate D2E/DX2 analytically  !
 ! D29   D(4,5,6,19)           163.4503         calculate D2E/DX2 analytically  !
 ! D30   D(16,5,6,7)           -77.5006         calculate D2E/DX2 analytically  !
 ! D31   D(16,5,6,18)          160.4597         calculate D2E/DX2 analytically  !
 ! D32   D(16,5,6,19)           42.7642         calculate D2E/DX2 analytically  !
 ! D33   D(17,5,6,7)           163.6481         calculate D2E/DX2 analytically  !
 ! D34   D(17,5,6,18)           41.6085         calculate D2E/DX2 analytically  !
 ! D35   D(17,5,6,19)          -76.087          calculate D2E/DX2 analytically  !
 ! D36   D(5,6,7,8)            -92.136          calculate D2E/DX2 analytically  !
 ! D37   D(5,6,7,20)           148.1028         calculate D2E/DX2 analytically  !
 ! D38   D(5,6,7,21)            29.476          calculate D2E/DX2 analytically  !
 ! D39   D(18,6,7,8)            30.6325         calculate D2E/DX2 analytically  !
 ! D40   D(18,6,7,20)          -89.1287         calculate D2E/DX2 analytically  !
 ! D41   D(18,6,7,21)          152.2445         calculate D2E/DX2 analytically  !
 ! D42   D(19,6,7,8)           147.8633         calculate D2E/DX2 analytically  !
 ! D43   D(19,6,7,20)           28.1021         calculate D2E/DX2 analytically  !
 ! D44   D(19,6,7,21)          -90.5248         calculate D2E/DX2 analytically  !
 ! D45   D(6,7,8,9)           -129.254          calculate D2E/DX2 analytically  !
 ! D46   D(6,7,8,10)            51.8425         calculate D2E/DX2 analytically  !
 ! D47   D(20,7,8,9)            -7.2322         calculate D2E/DX2 analytically  !
 ! D48   D(20,7,8,10)          173.8642         calculate D2E/DX2 analytically  !
 ! D49   D(21,7,8,9)           108.2829         calculate D2E/DX2 analytically  !
 ! D50   D(21,7,8,10)          -70.6206         calculate D2E/DX2 analytically  !
 ! D51   D(7,8,10,11)           99.5224         calculate D2E/DX2 analytically  !
 ! D52   D(7,8,10,14)          -19.4502         calculate D2E/DX2 analytically  !
 ! D53   D(7,8,10,22)         -142.6283         calculate D2E/DX2 analytically  !
 ! D54   D(9,8,10,11)          -79.404          calculate D2E/DX2 analytically  !
 ! D55   D(9,8,10,14)          161.6234         calculate D2E/DX2 analytically  !
 ! D56   D(9,8,10,22)           38.4453         calculate D2E/DX2 analytically  !
 ! D57   D(8,10,11,12)        -144.0161         calculate D2E/DX2 analytically  !
 ! D58   D(8,10,11,23)         -24.9957         calculate D2E/DX2 analytically  !
 ! D59   D(8,10,11,24)          96.6518         calculate D2E/DX2 analytically  !
 ! D60   D(14,10,11,12)        -13.7198         calculate D2E/DX2 analytically  !
 ! D61   D(14,10,11,23)        105.3007         calculate D2E/DX2 analytically  !
 ! D62   D(14,10,11,24)       -133.0518         calculate D2E/DX2 analytically  !
 ! D63   D(22,10,11,12)         98.9063         calculate D2E/DX2 analytically  !
 ! D64   D(22,10,11,23)       -142.0732         calculate D2E/DX2 analytically  !
 ! D65   D(22,10,11,24)        -20.4258         calculate D2E/DX2 analytically  !
 ! D66   D(8,10,14,4)           45.6257         calculate D2E/DX2 analytically  !
 ! D67   D(8,10,14,13)         163.1713         calculate D2E/DX2 analytically  !
 ! D68   D(8,10,14,26)         -81.2054         calculate D2E/DX2 analytically  !
 ! D69   D(11,10,14,4)         -78.4096         calculate D2E/DX2 analytically  !
 ! D70   D(11,10,14,13)         39.136          calculate D2E/DX2 analytically  !
 ! D71   D(11,10,14,26)        154.7593         calculate D2E/DX2 analytically  !
 ! D72   D(22,10,14,4)         168.4926         calculate D2E/DX2 analytically  !
 ! D73   D(22,10,14,13)        -73.9617         calculate D2E/DX2 analytically  !
 ! D74   D(22,10,14,26)         41.6615         calculate D2E/DX2 analytically  !
 ! D75   D(10,11,12,2)         101.3057         calculate D2E/DX2 analytically  !
 ! D76   D(10,11,12,13)        -15.6137         calculate D2E/DX2 analytically  !
 ! D77   D(10,11,12,25)       -135.0802         calculate D2E/DX2 analytically  !
 ! D78   D(23,11,12,2)         -18.5189         calculate D2E/DX2 analytically  !
 ! D79   D(23,11,12,13)       -135.4383         calculate D2E/DX2 analytically  !
 ! D80   D(23,11,12,25)        105.0952         calculate D2E/DX2 analytically  !
 ! D81   D(24,11,12,2)        -139.2382         calculate D2E/DX2 analytically  !
 ! D82   D(24,11,12,13)        103.8424         calculate D2E/DX2 analytically  !
 ! D83   D(24,11,12,25)        -15.6241         calculate D2E/DX2 analytically  !
 ! D84   D(2,12,13,14)         -73.3588         calculate D2E/DX2 analytically  !
 ! D85   D(11,12,13,14)         41.9762         calculate D2E/DX2 analytically  !
 ! D86   D(25,12,13,14)        164.5479         calculate D2E/DX2 analytically  !
 ! D87   D(12,13,14,4)          66.972          calculate D2E/DX2 analytically  !
 ! D88   D(12,13,14,10)        -51.1108         calculate D2E/DX2 analytically  !
 ! D89   D(12,13,14,26)       -170.7003         calculate D2E/DX2 analytically  !
 --------------------------------------------------------------------------------
 Trust Radius=3.00D-01 FncErr=1.00D-07 GrdErr=1.00D-06 EigMax=2.50D+02 EigMin=1.00D-04
 Number of steps in this run=    156 maximum allowed number of steps=    156.
 GradGradGradGradGradGradGradGradGradGradGradGradGradGradGradGradGradGrad

 Leave Link  103 at Thu Jan 29 20:37:39 2026, MaxMem=  4294967296 cpu:               0.4 elap:               0.0
 (Enter /root/g16/l202.exe)
                          Input orientation:                          
 ---------------------------------------------------------------------
 Center     Atomic      Atomic             Coordinates (Angstroms)
 Number     Number       Type             X           Y           Z
 ---------------------------------------------------------------------
      1          8           0        3.022145    0.846093    1.307466
      2          6           0        2.077125    0.702745    0.556992
      3          6           0        0.888104    1.549700    0.551859
      4          6           0       -0.135315    1.283490   -0.273352
      5          6           0       -1.449202    1.983490   -0.231943
      6          6           0       -2.578272    0.950632   -0.106567
      7          6           0       -2.234716   -0.145471    0.912324
      8          6           0       -1.566066   -1.359857    0.310782
      9          8           0       -1.981725   -2.472985    0.539495
     10          6           0       -0.341911   -1.206467   -0.574263
     11          6           0        0.963602   -1.488151    0.203451
     12          6           0        1.957819   -0.466043   -0.418051
     13          8           0        1.351124   -0.026152   -1.614496
     14          6           0       -0.002988    0.148340   -1.249507
     15          1           0        0.860905    2.369910    1.254762
     16          1           0       -1.471815    2.670285    0.615030
     17          1           0       -1.587635    2.565205   -1.146337
     18          1           0       -2.788115    0.491856   -1.073669
     19          1           0       -3.484175    1.463880    0.215561
     20          1           0       -3.140223   -0.505172    1.405283
     21          1           0       -1.574934    0.260668    1.683238
     22          1           0       -0.431221   -1.954789   -1.368464
     23          1           0        0.847439   -1.315857    1.274325
     24          1           0        1.303069   -2.510248    0.056316
     25          1           0        2.935280   -0.889739   -0.650774
     26          1           0       -0.571726    0.328270   -2.162681
 ---------------------------------------------------------------------
                    Distance matrix (angstroms):
                    1          2          3          4          5
     1  O    0.000000
     2  C    1.215246   0.000000
     3  C    2.370683   1.459839   0.000000
     4  C    3.558069   2.433439   1.341353   0.000000
     5  C    4.863785   3.833759   2.503102   1.489300   0.000000
     6  C    5.777118   4.708978   3.578850   2.471163   1.535354
     7  C    5.364133   4.408820   3.571491   2.802719   2.541427
     8  C    5.187608   4.193779   3.814000   3.061950   3.389126
     9  O    6.053493   5.153622   4.941465   4.263924   4.553995
    10  C    4.367011   3.282768   3.221420   2.516568   3.393980
    11  C    3.302294   2.482931   3.058697   3.019429   4.250115
    12  C    2.414932   1.526763   2.479563   2.731852   4.200314
    13  O    3.477209   2.402858   2.718601   2.392348   3.713750
    14  C    4.021990   2.810280   2.450056   1.502982   2.548479
    15  H    2.644949   2.178420   1.080535   2.123180   2.774204
    16  H    4.899268   4.058270   2.613220   2.121003   1.090671
    17  H    5.497870   4.449781   3.169291   2.124648   1.092553
    18  H    6.289230   5.135570   4.156436   2.881759   2.173973
    19  H    6.626169   5.623518   4.386033   3.389164   2.147410
    20  H    6.309538   5.422119   4.601984   3.878994   3.425419
    21  H    4.649416   3.847258   3.001363   2.635699   2.579117
    22  H    5.189536   4.130577   4.208291   3.431222   4.223507
    23  H    3.066671   2.470110   2.955508   3.180835   4.292912
    24  H    3.973112   3.342628   4.111075   4.070635   5.277477
    25  H    2.618274   2.175117   3.404133   3.780731   5.258759
    26  H    5.022546   3.814874   3.315377   2.161588   2.690253
                    6          7          8          9         10
     6  C    0.000000
     7  C    1.535452   0.000000
     8  C    2.556775   1.511184   0.000000
     9  O    3.534745   2.370723   1.210015   0.000000
    10  C    3.142153   2.630278   1.518351   2.352342   0.000000
    11  C    4.311455   3.540413   2.535192   3.123743   1.545493
    12  C    4.762364   4.410216   3.707812   4.523794   2.421031
    13  O    4.320660   4.388314   3.741051   4.662033   2.311190
    14  C    2.929517   3.120968   2.674392   3.739956   1.551233
    15  H    3.961755   4.003408   4.548895   5.660899   4.193158
    16  H    2.168445   2.932385   4.042708   5.169037   4.209549
    17  H    2.160862   3.464760   4.186857   5.327354   4.013054
    18  H    1.090778   2.157917   2.615138   3.470281   3.019539
    19  H    1.089885   2.153285   3.414922   4.226251   4.198618
    20  H    2.172751   1.091942   2.099140   2.442130   3.498709
    21  H    2.164750   1.092964   2.123633   2.991068   2.961274
    22  H    3.826707   3.424649   2.112271   2.512548   1.094860
    23  H    4.333512   3.316704   2.599107   3.143738   2.200863
    24  H    5.202790   4.340603   3.101627   3.320349   2.191674
    25  H    5.838012   5.452162   4.626848   5.300976   3.293350
    26  H    2.939585   3.527834   3.155393   4.139672   2.220654
                   11         12         13         14         15
    11  C    0.000000
    12  C    1.555454   0.000000
    13  O    2.364856   1.411759   0.000000
    14  C    2.392380   2.216653   1.413253   0.000000
    15  H    4.000054   3.470468   3.770154   3.457318   0.000000
    16  H    4.836656   4.760903   4.495614   3.463258   2.437430
    17  H    4.975985   4.721134   3.945961   2.891883   3.434933
    18  H    4.430219   4.885825   4.206438   2.811735   4.718477
    19  H    5.338290   5.808731   5.380466   3.999466   4.558569
    20  H    4.387713   5.414435   5.433298   4.161397   4.929278
    21  H    3.419401   4.174190   4.418046   3.329358   3.250508
    22  H    2.152720   2.971054   2.637599   2.149578   5.220530
    23  H    1.090848   2.195282   3.203486   3.039214   3.685843
    24  H    1.087000   2.198294   2.994103   3.237135   5.044573
    25  H    2.230541   1.090463   2.045505   3.173249   4.308063
    26  H    3.354877   3.173841   2.030634   1.090745   4.230797
                   16         17         18         19         20
    16  H    0.000000
    17  H    1.768296   0.000000
    18  H    3.054489   2.396916   0.000000
    19  H    2.380038   2.581578   1.758250   0.000000
    20  H    3.673093   4.283516   2.695041   2.326135   0.000000
    21  H    2.637793   3.649321   3.020893   2.692024   1.764625
    22  H    5.138910   4.670865   3.409974   4.849429   4.139294
    23  H    4.658640   5.181875   4.690219   5.254597   4.071340
    24  H    5.903394   5.963452   5.198776   6.223885   5.057953
    25  H    5.805042   5.713054   5.902956   6.891985   6.425497
    26  H    3.743110   2.658741   2.474890   3.927849   4.474613
                   21         22         23         24         25
    21  H    0.000000
    22  H    3.940713   0.000000
    23  H    2.918995   3.004587   0.000000
    24  H    4.313670   2.312206   1.765705   0.000000
    25  H    5.207022   3.603158   2.871701   2.406271   0.000000
    26  H    3.975184   2.421339   4.065734   4.061525   4.008554
                   26
    26  H    0.000000
 Stoichiometry    C11H12O3
 Framework group  C1[X(C11H12O3)]
 Deg. of freedom    72
 Full point group                 C1      NOp   1
 Largest Abelian subgroup         C1      NOp   1
 Largest concise Abelian subgroup C1      NOp   1
                         Standard orientation:                         
 ---------------------------------------------------------------------
 Center     Atomic      Atomic             Coordinates (Angstroms)
 Number     Number       Type             X           Y           Z
 ---------------------------------------------------------------------
      1          8           0       -3.169389    0.256611   -1.300423
      2          6           0       -2.213661    0.283148   -0.550287
      3          6           0       -1.206313    1.339539   -0.529880
      4          6           0       -0.150296    1.259132    0.293280
      5          6           0        1.007421    2.195569    0.265176
      6          6           0        2.311373    1.396960    0.126442
      7          6           0        2.180472    0.271365   -0.909662
      8          6           0        1.754131   -1.056625   -0.327981
      9          8           0        2.372645   -2.067409   -0.572712
     10          6           0        0.523832   -1.151101    0.556794
     11          6           0       -0.705505   -1.662717   -0.227764
     12          6           0       -1.874574   -0.856740    0.407149
     13          8           0       -1.361002   -0.328374    1.611365
     14          6           0       -0.064661    0.104658    1.251826
     15          1           0       -1.335367    2.160734   -1.220199
     16          1           0        0.898976    2.887108   -0.571230
     17          1           0        1.034113    2.778921    1.188572
     18          1           0        2.605050    0.971429    1.086897
     19          1           0        3.103555    2.077158   -0.186014
     20          1           0        3.137244    0.097013   -1.406176
     21          1           0        1.455107    0.557110   -1.675668
     22          1           0        0.753772   -1.881073    1.339728
     23          1           0       -0.624961   -1.455212   -1.295661
     24          1           0       -0.845375   -2.732702   -0.096848
     25          1           0       -2.754039   -1.461181    0.631424
     26          1           0        0.460568    0.374937    2.168782
 ---------------------------------------------------------------------
 Rotational constants (GHZ):           1.1376053           0.6663378           0.5444010
 Leave Link  202 at Thu Jan 29 20:37:39 2026, MaxMem=  4294967296 cpu:               0.3 elap:               0.0
 (Enter /root/g16/l301.exe)
 Standard basis: def2SVP (5D, 7F)
 Ernie: Thresh=  0.10000D-02 Tol=  0.10000D-05 Strict=F.
 There are   270 symmetry adapted cartesian basis functions of A   symmetry.
 There are   256 symmetry adapted basis functions of A   symmetry.
   256 basis functions,   434 primitive gaussians,   270 cartesian basis functions
    51 alpha electrons       51 beta electrons
       nuclear repulsion energy       942.1673782546 Hartrees.
 IExCor=  402 DFT=T Ex+Corr=B3LYP ExCW=0 ScaHFX=  0.200000
 ScaDFX=  0.800000  0.720000  1.000000  0.810000 ScalE2=  1.000000  1.000000
 IRadAn=      5 IRanWt=     -1 IRanGd=            0 ICorTp=0 IEmpDi=141
 NAtoms=   26 NActive=   26 NUniq=   26 SFac= 1.00D+00 NAtFMM=   60 NAOKFM=F Big=F
 Integral buffers will be    131072 words long.
 Raffenetti 2 integral format.
 Two-electron integral symmetry is turned on.
 R6Disp:  Grimme-D3(BJ) Dispersion energy=       -0.0573681579 Hartrees.
 Nuclear repulsion after empirical dispersion term =      942.1100100967 Hartrees.
 Force inversion solution in PCM.
 ------------------------------------------------------------------------------
 Polarizable Continuum Model (PCM)
 =================================
 Model                : PCM.
 Atomic radii         : UFF (Universal Force Field).
 Polarization charges : Total charges.
 Charge compensation  : None.
 Solution method      : Matrix inversion.
 Cavity type          : Scaled VdW (van der Waals Surface) (Alpha=1.100).
 Cavity algorithm     : GePol (No added spheres)
                        Default sphere list used, NSphG=   26.
                        Lebedev-Laikov grids with approx.  5.0 points / Ang**2.
                        Smoothing algorithm: York/Karplus (Gamma=1.0000).
                        Polarization charges: spherical gaussians, with
                                              point-specific exponents (IZeta= 3).
                        Self-potential: point-specific (ISelfS= 7).
                        Self-field    : sphere-specific E.n sum rule (ISelfD= 2).
 1st derivatives      : Analytical E(r).r(x)/FMM algorithm (CHGder, D1EAlg=3).
                        Cavity 1st derivative terms included.
 2nd derivatives      : Analytical E(r).r(xy)/FMM algorithm (CHGder, D2EAlg=3).
                        Cavity 2nd derivative terms included.
 Solvent              : Acetone, Eps=  20.493000 Eps(inf)=   1.846337
 ------------------------------------------------------------------------------
 GePol: Number of generator spheres                  =      26
 GePol: Total number of spheres                      =      26
 GePol: Number of exposed spheres                    =      26 (100.00%)
 GePol: Number of points                             =    1824
 GePol: Average weight of points                     =       0.13
 GePol: Minimum weight of points                     =   0.17D-10
 GePol: Maximum weight of points                     =    0.20577
 GePol: Number of points with low weight             =     126
 GePol: Fraction of low-weight points (<1% of avg)   =       6.91%
 GePol: Cavity surface area                          =    236.615 Ang**2
 GePol: Cavity volume                                =    256.754 Ang**3
 Leave Link  301 at Thu Jan 29 20:37:39 2026, MaxMem=  4294967296 cpu:               0.4 elap:               0.0
 (Enter /root/g16/l302.exe)
 NPDir=0 NMtPBC=     1 NCelOv=     1 NCel=       1 NClECP=     1 NCelD=      1
         NCelK=      1 NCelE2=     1 NClLst=     1 CellRange=     0.0.
 One-electron integrals computed using PRISM.
 One-electron integral symmetry used in STVInt
   1 Symmetry operations used in ECPInt.
 ECPInt:  NShTT=    7260 NPrTT=   26324 LenC2=    7127 LenP2D=   19926.
 LDataN:  DoStor=T MaxTD1= 4 Len=   56
 NBasis=   256 RedAO= T EigKep=  3.47D-04  NBF=   256
 NBsUse=   256 1.00D-06 EigRej= -1.00D+00 NBFU=   256
 Precomputing XC quadrature grid using
 IXCGrd= 4 IRadAn=           5 IRanWt=          -1 IRanGd=           0 AccXCQ= 0.00D+00.
 Generated NRdTot=       0 NPtTot=           0 NUsed=           0 NTot=          32
 NSgBfM=   270   270   270   270   270 MxSgAt=    26 MxSgA2=    26.
 Leave Link  302 at Thu Jan 29 20:37:39 2026, MaxMem=  4294967296 cpu:               1.9 elap:               0.1
 (Enter /root/g16/l303.exe)
 DipDrv:  MaxL=1.
 Leave Link  303 at Thu Jan 29 20:37:39 2026, MaxMem=  4294967296 cpu:               0.2 elap:               0.0
 (Enter /root/g16/l401.exe)
 ExpMin= 1.22D-01 ExpMax= 2.27D+03 ExpMxC= 3.41D+02 IAcc=3 IRadAn=         5 AccDes= 0.00D+00
 Harris functional with IExCor=  402 and IRadAn=       5 diagonalized for initial guess.
 HarFok:  IExCor=  402 AccDes= 0.00D+00 IRadAn=         5 IDoV= 1 UseB2=F ITyADJ=14
 ICtDFT=  3500011 ScaDFX=  1.000000  1.000000  1.000000  1.000000
 FoFCou: FMM=F IPFlag=           0 FMFlag=      100000 FMFlg1=           0
         NFxFlg=           0 DoJE=T BraDBF=F KetDBF=T FulRan=T
         wScrn=  0.000000 ICntrl=       500 IOpCl=  0 I1Cent=   200000004 NGrid=           0
         NMat0=    1 NMatS0=      1 NMatT0=    0 NMatD0=    1 NMtDS0=    0 NMtDT0=    0
 Petite list used in FoFCou.
 Harris En= -651.600456083884    
 JPrj=0 DoOrth=F DoCkMO=F.
 Leave Link  401 at Thu Jan 29 20:37:39 2026, MaxMem=  4294967296 cpu:               8.0 elap:               0.5
 (Enter /root/g16/l502.exe)
 Integral symmetry usage will be decided dynamically.
 Closed shell SCF:
 Using DIIS extrapolation, IDIIS=  1040.
 NGot=  4294967296 LenX=  4294814202 LenY=  4294740861
 Requested convergence on RMS density matrix=1.00D-08 within 128 cycles.
 Requested convergence on MAX density matrix=1.00D-06.
 Requested convergence on             energy=1.00D-06.
 No special actions if energy rises.
 Fock matrices will be formed incrementally for  20 cycles.

 Cycle   1  Pass 1  IDiag  1:
 FoFJK:  IHMeth= 1 ICntrl=       0 DoSepK=F KAlg= 0 I1Cent=           0 FoldK=F
 IRaf= 950000000 NMat=       1 IRICut=       1 DoRegI=T DoRafI=F ISym2E= 0 IDoP0=0 IntGTp=1.
 FoFCou: FMM=F IPFlag=           0 FMFlag=      100000 FMFlg1=           0
         NFxFlg=           0 DoJE=F BraDBF=F KetDBF=F FulRan=T
         wScrn=  0.000000 ICntrl=         0 IOpCl=  0 I1Cent=           0 NGrid=           0
         NMat0=    1 NMatS0=      1 NMatT0=    0 NMatD0=    1 NMtDS0=    0 NMtDT0=    0
 Symmetry not used in FoFCou.
 Inv3:  Mode=1 IEnd=     9980928.
 Iteration    1 A*A^-1 deviation from unit magnitude is 3.77D-15 for    194.
 Iteration    1 A*A^-1 deviation from orthogonality  is 2.12D-15 for   1814   1550.
 Iteration    1 A^-1*A deviation from unit magnitude is 3.55D-15 for    194.
 Iteration    1 A^-1*A deviation from orthogonality  is 2.25D-15 for   1452    326.
 E= -651.336132569626    
 DIIS: error= 1.84D-02 at cycle   1 NSaved=   1.
 NSaved= 1 IEnMin= 1 EnMin= -651.336132569626     IErMin= 1 ErrMin= 1.84D-02
 ErrMax= 1.84D-02  0.00D+00 EMaxC= 1.00D-01 BMatC= 3.04D-01 BMatP= 3.04D-01
 IDIUse=3 WtCom= 8.16D-01 WtEn= 1.84D-01
 Coeff-Com:  0.100D+01
 Coeff-En:   0.100D+01
 Coeff:      0.100D+01
 Gap=     0.152 Goal=   None    Shift=    0.000
 GapD=    0.152 DampG=1.000 DampE=0.500 DampFc=0.5000 IDamp=-1.
 Damping current iteration by 5.00D-01
 RMSDP=7.51D-03 MaxDP=3.70D-01              OVMax= 1.63D-01

 Cycle   2  Pass 1  IDiag  1:
 RMSU=  3.75D-03    CP:  9.92D-01
 E= -651.443753028245     Delta-E=       -0.107620458619 Rises=F Damp=T
 DIIS: error= 6.17D-03 at cycle   2 NSaved=   2.
 NSaved= 2 IEnMin= 2 EnMin= -651.443753028245     IErMin= 2 ErrMin= 6.17D-03
 ErrMax= 6.17D-03  0.00D+00 EMaxC= 1.00D-01 BMatC= 3.26D-02 BMatP= 3.04D-01
 IDIUse=3 WtCom= 9.38D-01 WtEn= 6.17D-02
 Coeff-Com:  0.158D+00 0.842D+00
 Coeff-En:   0.220D+00 0.780D+00
 Coeff:      0.162D+00 0.838D+00
 Gap=     0.195 Goal=   None    Shift=    0.000
 RMSDP=2.29D-03 MaxDP=1.23D-01 DE=-1.08D-01 OVMax= 1.25D-01

 Cycle   3  Pass 1  IDiag  1:
 RMSU=  2.14D-03    CP:  9.67D-01  8.47D-01
 E= -651.591556548559     Delta-E=       -0.147803520314 Rises=F Damp=F
 DIIS: error= 8.07D-03 at cycle   3 NSaved=   3.
 NSaved= 3 IEnMin= 3 EnMin= -651.591556548559     IErMin= 2 ErrMin= 6.17D-03
 ErrMax= 8.07D-03  0.00D+00 EMaxC= 1.00D-01 BMatC= 3.39D-02 BMatP= 3.26D-02
 IDIUse=3 WtCom= 9.19D-01 WtEn= 8.07D-02
 Coeff-Com:  0.251D-01 0.504D+00 0.471D+00
 Coeff-En:   0.000D+00 0.000D+00 0.100D+01
 Coeff:      0.231D-01 0.463D+00 0.514D+00
 Gap=     0.178 Goal=   None    Shift=    0.000
 RMSDP=1.19D-03 MaxDP=4.48D-02 DE=-1.48D-01 OVMax= 5.15D-02

 Cycle   4  Pass 1  IDiag  1:
 RMSU=  8.60D-04    CP:  9.76D-01  9.82D-01  7.09D-01
 E= -651.615939547697     Delta-E=       -0.024382999138 Rises=F Damp=F
 DIIS: error= 2.82D-03 at cycle   4 NSaved=   4.
 NSaved= 4 IEnMin= 4 EnMin= -651.615939547697     IErMin= 4 ErrMin= 2.82D-03
 ErrMax= 2.82D-03  0.00D+00 EMaxC= 1.00D-01 BMatC= 5.90D-03 BMatP= 3.26D-02
 IDIUse=3 WtCom= 9.72D-01 WtEn= 2.82D-02
 Coeff-Com:  0.158D-02 0.134D+00 0.315D+00 0.550D+00
 Coeff-En:   0.000D+00 0.000D+00 0.173D+00 0.827D+00
 Coeff:      0.154D-02 0.130D+00 0.311D+00 0.557D+00
 Gap=     0.180 Goal=   None    Shift=    0.000
 RMSDP=5.29D-04 MaxDP=2.15D-02 DE=-2.44D-02 OVMax= 1.96D-02

 Cycle   5  Pass 1  IDiag  1:
 RMSU=  2.27D-04    CP:  9.72D-01  9.12D-01  7.69D-01  5.68D-01
 E= -651.620892463270     Delta-E=       -0.004952915573 Rises=F Damp=F
 DIIS: error= 4.22D-04 at cycle   5 NSaved=   5.
 NSaved= 5 IEnMin= 5 EnMin= -651.620892463270     IErMin= 5 ErrMin= 4.22D-04
 ErrMax= 4.22D-04  0.00D+00 EMaxC= 1.00D-01 BMatC= 1.59D-04 BMatP= 5.90D-03
 IDIUse=3 WtCom= 9.96D-01 WtEn= 4.22D-03
 Coeff-Com: -0.815D-03 0.206D-01 0.101D+00 0.245D+00 0.634D+00
 Coeff-En:   0.000D+00 0.000D+00 0.000D+00 0.000D+00 0.100D+01
 Coeff:     -0.812D-03 0.205D-01 0.101D+00 0.244D+00 0.636D+00
 Gap=     0.179 Goal=   None    Shift=    0.000
 RMSDP=9.50D-05 MaxDP=2.88D-03 DE=-4.95D-03 OVMax= 8.59D-03

 Cycle   6  Pass 1  IDiag  1:
 RMSU=  5.51D-05    CP:  9.73D-01  9.21D-01  7.70D-01  6.12D-01  7.40D-01
 E= -651.621009114850     Delta-E=       -0.000116651580 Rises=F Damp=F
 DIIS: error= 2.07D-04 at cycle   6 NSaved=   6.
 NSaved= 6 IEnMin= 6 EnMin= -651.621009114850     IErMin= 6 ErrMin= 2.07D-04
 ErrMax= 2.07D-04  0.00D+00 EMaxC= 1.00D-01 BMatC= 4.18D-05 BMatP= 1.59D-04
 IDIUse=3 WtCom= 9.98D-01 WtEn= 2.07D-03
 Coeff-Com: -0.485D-03 0.103D-03 0.333D-01 0.973D-01 0.397D+00 0.473D+00
 Coeff-En:   0.000D+00 0.000D+00 0.000D+00 0.000D+00 0.210D+00 0.790D+00
 Coeff:     -0.484D-03 0.102D-03 0.332D-01 0.971D-01 0.396D+00 0.474D+00
 Gap=     0.179 Goal=   None    Shift=    0.000
 RMSDP=3.14D-05 MaxDP=1.39D-03 DE=-1.17D-04 OVMax= 3.76D-03

 Cycle   7  Pass 1  IDiag  1:
 RMSU=  1.41D-05    CP:  9.72D-01  9.21D-01  7.73D-01  6.10D-01  7.67D-01
                    CP:  5.14D-01
 E= -651.621050965590     Delta-E=       -0.000041850740 Rises=F Damp=F
 DIIS: error= 3.68D-05 at cycle   7 NSaved=   7.
 NSaved= 7 IEnMin= 7 EnMin= -651.621050965590     IErMin= 7 ErrMin= 3.68D-05
 ErrMax= 3.68D-05  0.00D+00 EMaxC= 1.00D-01 BMatC= 1.56D-06 BMatP= 4.18D-05
 IDIUse=1 WtCom= 1.00D+00 WtEn= 0.00D+00
 Coeff-Com: -0.148D-03-0.134D-02 0.106D-01 0.329D-01 0.162D+00 0.242D+00
 Coeff-Com:  0.554D+00
 Coeff:     -0.148D-03-0.134D-02 0.106D-01 0.329D-01 0.162D+00 0.242D+00
 Coeff:      0.554D+00
 Gap=     0.179 Goal=   None    Shift=    0.000
 RMSDP=7.19D-06 MaxDP=2.24D-04 DE=-4.19D-05 OVMax= 4.44D-04

 Cycle   8  Pass 1  IDiag  1:
 RMSU=  4.33D-06    CP:  9.72D-01  9.20D-01  7.74D-01  6.12D-01  7.66D-01
                    CP:  5.28D-01  6.55D-01
 E= -651.621052403494     Delta-E=       -0.000001437904 Rises=F Damp=F
 DIIS: error= 9.48D-06 at cycle   8 NSaved=   8.
 NSaved= 8 IEnMin= 8 EnMin= -651.621052403494     IErMin= 8 ErrMin= 9.48D-06
 ErrMax= 9.48D-06  0.00D+00 EMaxC= 1.00D-01 BMatC= 8.73D-08 BMatP= 1.56D-06
 IDIUse=1 WtCom= 1.00D+00 WtEn= 0.00D+00
 Coeff-Com:  0.207D-04-0.675D-03 0.178D-02 0.539D-02 0.358D-01 0.618D-01
 Coeff-Com:  0.232D+00 0.664D+00
 Coeff:      0.207D-04-0.675D-03 0.178D-02 0.539D-02 0.358D-01 0.618D-01
 Coeff:      0.232D+00 0.664D+00
 Gap=     0.179 Goal=   None    Shift=    0.000
 RMSDP=2.15D-06 MaxDP=1.09D-04 DE=-1.44D-06 OVMax= 4.29D-05

 Cycle   9  Pass 1  IDiag  1:
 RMSU=  1.41D-06    CP:  9.72D-01  9.20D-01  7.74D-01  6.11D-01  7.69D-01
                    CP:  5.34D-01  6.78D-01  7.73D-01
 E= -651.621052475232     Delta-E=       -0.000000071738 Rises=F Damp=F
 DIIS: error= 4.38D-06 at cycle   9 NSaved=   9.
 NSaved= 9 IEnMin= 9 EnMin= -651.621052475232     IErMin= 9 ErrMin= 4.38D-06
 ErrMax= 4.38D-06  0.00D+00 EMaxC= 1.00D-01 BMatC= 1.18D-08 BMatP= 8.73D-08
 IDIUse=1 WtCom= 1.00D+00 WtEn= 0.00D+00
 Coeff-Com:  0.264D-04-0.281D-03 0.268D-03 0.612D-03 0.828D-02 0.153D-01
 Coeff-Com:  0.815D-01 0.344D+00 0.550D+00
 Coeff:      0.264D-04-0.281D-03 0.268D-03 0.612D-03 0.828D-02 0.153D-01
 Coeff:      0.815D-01 0.344D+00 0.550D+00
 Gap=     0.179 Goal=   None    Shift=    0.000
 RMSDP=7.13D-07 MaxDP=3.06D-05 DE=-7.17D-08 OVMax= 2.02D-05

 Cycle  10  Pass 1  IDiag  1:
 RMSU=  4.49D-07    CP:  9.72D-01  9.20D-01  7.74D-01  6.11D-01  7.69D-01
                    CP:  5.33D-01  6.85D-01  8.21D-01  6.73D-01
 E= -651.621052483146     Delta-E=       -0.000000007915 Rises=F Damp=F
 DIIS: error= 2.38D-06 at cycle  10 NSaved=  10.
 NSaved=10 IEnMin=10 EnMin= -651.621052483146     IErMin=10 ErrMin= 2.38D-06
 ErrMax= 2.38D-06  0.00D+00 EMaxC= 1.00D-01 BMatC= 2.10D-09 BMatP= 1.18D-08
 IDIUse=1 WtCom= 1.00D+00 WtEn= 0.00D+00
 Coeff-Com:  0.162D-04-0.712D-04-0.114D-03-0.509D-03-0.502D-03-0.636D-03
 Coeff-Com:  0.138D-01 0.108D+00 0.330D+00 0.550D+00
 Coeff:      0.162D-04-0.712D-04-0.114D-03-0.509D-03-0.502D-03-0.636D-03
 Coeff:      0.138D-01 0.108D+00 0.330D+00 0.550D+00
 Gap=     0.179 Goal=   None    Shift=    0.000
 RMSDP=2.89D-07 MaxDP=1.41D-05 DE=-7.91D-09 OVMax= 9.30D-06

 Cycle  11  Pass 1  IDiag  1:
 RMSU=  1.70D-07    CP:  9.72D-01  9.20D-01  7.74D-01  6.11D-01  7.69D-01
                    CP:  5.33D-01  6.87D-01  8.34D-01  7.22D-01  6.02D-01
 E= -651.621052484652     Delta-E=       -0.000000001506 Rises=F Damp=F
 DIIS: error= 7.14D-07 at cycle  11 NSaved=  11.
 NSaved=11 IEnMin=11 EnMin= -651.621052484652     IErMin=11 ErrMin= 7.14D-07
 ErrMax= 7.14D-07  0.00D+00 EMaxC= 1.00D-01 BMatC= 2.23D-10 BMatP= 2.10D-09
 IDIUse=1 WtCom= 1.00D+00 WtEn= 0.00D+00
 Coeff-Com:  0.709D-05-0.146D-04-0.811D-04-0.333D-03-0.965D-03-0.185D-02
 Coeff-Com:  0.143D-03 0.264D-01 0.130D+00 0.315D+00 0.531D+00
 Coeff:      0.709D-05-0.146D-04-0.811D-04-0.333D-03-0.965D-03-0.185D-02
 Coeff:      0.143D-03 0.264D-01 0.130D+00 0.315D+00 0.531D+00
 Gap=     0.179 Goal=   None    Shift=    0.000
 RMSDP=9.27D-08 MaxDP=4.41D-06 DE=-1.51D-09 OVMax= 2.85D-06

 Cycle  12  Pass 1  IDiag  1:
 RMSU=  6.22D-08    CP:  9.72D-01  9.20D-01  7.74D-01  6.11D-01  7.69D-01
                    CP:  5.33D-01  6.87D-01  8.37D-01  7.28D-01  6.75D-01
                    CP:  7.09D-01
 E= -651.621052484824     Delta-E=       -0.000000000172 Rises=F Damp=F
 DIIS: error= 1.59D-07 at cycle  12 NSaved=  12.
 NSaved=12 IEnMin=12 EnMin= -651.621052484824     IErMin=12 ErrMin= 1.59D-07
 ErrMax= 1.59D-07  0.00D+00 EMaxC= 1.00D-01 BMatC= 1.97D-11 BMatP= 2.23D-10
 IDIUse=1 WtCom= 1.00D+00 WtEn= 0.00D+00
 Coeff-Com:  0.171D-05 0.600D-06-0.256D-04-0.108D-03-0.416D-03-0.912D-03
 Coeff-Com: -0.155D-02-0.702D-03 0.248D-01 0.940D-01 0.278D+00 0.607D+00
 Coeff:      0.171D-05 0.600D-06-0.256D-04-0.108D-03-0.416D-03-0.912D-03
 Coeff:     -0.155D-02-0.702D-03 0.248D-01 0.940D-01 0.278D+00 0.607D+00
 Gap=     0.179 Goal=   None    Shift=    0.000
 RMSDP=2.71D-08 MaxDP=1.07D-06 DE=-1.72D-10 OVMax= 7.91D-07

 Cycle  13  Pass 1  IDiag  1:
 RMSU=  1.45D-08    CP:  9.72D-01  9.20D-01  7.74D-01  6.11D-01  7.69D-01
                    CP:  5.33D-01  6.87D-01  8.38D-01  7.34D-01  6.84D-01
                    CP:  7.49D-01  7.75D-01
 E= -651.621052484835     Delta-E=       -0.000000000011 Rises=F Damp=F
 DIIS: error= 3.55D-08 at cycle  13 NSaved=  13.
 NSaved=13 IEnMin=13 EnMin= -651.621052484835     IErMin=13 ErrMin= 3.55D-08
 ErrMax= 3.55D-08  0.00D+00 EMaxC= 1.00D-01 BMatC= 1.57D-12 BMatP= 1.97D-11
 IDIUse=1 WtCom= 1.00D+00 WtEn= 0.00D+00
 Coeff-Com:  0.388D-06 0.112D-05-0.507D-05-0.261D-04-0.113D-03-0.294D-03
 Coeff-Com: -0.650D-03-0.232D-02 0.200D-02 0.215D-01 0.957D-01 0.299D+00
 Coeff-Com:  0.585D+00
 Coeff:      0.388D-06 0.112D-05-0.507D-05-0.261D-04-0.113D-03-0.294D-03
 Coeff:     -0.650D-03-0.232D-02 0.200D-02 0.215D-01 0.957D-01 0.299D+00
 Coeff:      0.585D+00
 Gap=     0.179 Goal=   None    Shift=    0.000
 RMSDP=7.17D-09 MaxDP=1.96D-07 DE=-1.10D-11 OVMax= 2.51D-07

 Error on total polarization charges =  0.00862
 SCF Done:  E(RB3LYP) =  -651.621052485     A.U. after   13 cycles
            NFock= 13  Conv=0.72D-08     -V/T= 2.0094
 KE= 6.455361564607D+02 PE=-3.400970509932D+03 EE= 1.161703290889D+03
 Leave Link  502 at Thu Jan 29 20:37:57 2026, MaxMem=  4294967296 cpu:             272.6 elap:              17.0
 (Enter /root/g16/l801.exe)
 DoSCS=F DFT=T ScalE2(SS,OS)=  1.000000  1.000000
 Range of M.O.s used for correlation:     1   256
 NBasis=   256 NAE=    51 NBE=    51 NFC=     0 NFV=     0
 NROrb=    256 NOA=    51 NOB=    51 NVA=   205 NVB=   205
 Leave Link  801 at Thu Jan 29 20:37:57 2026, MaxMem=  4294967296 cpu:               0.1 elap:               0.0
 (Enter /root/g16/l1101.exe)
 Using compressed storage, NAtomX=    26.
 Will process     27 centers per pass.
   1 Symmetry operations used in ECPInt.
 ECPInt:  NShTT=    7260 NPrTT=   26324 LenC2=    7127 LenP2D=   19926.
 LDataN:  DoStor=T MaxTD1= 5 Len=  102
 R6Disp: Adding Grimme-D3(BJ) dispersion energy 1st derivatives to the gradient.
 Leave Link 1101 at Thu Jan 29 20:37:57 2026, MaxMem=  4294967296 cpu:               3.7 elap:               0.2
 (Enter /root/g16/l1102.exe)
 Symmetrizing basis deriv contribution to polar:
 IMax=3 JMax=2 DiffMx= 0.00D+00
 Leave Link 1102 at Thu Jan 29 20:37:57 2026, MaxMem=  4294967296 cpu:               0.3 elap:               0.0
 (Enter /root/g16/l1110.exe)
 Forming Gx(P) for the SCF density, NAtomX=    26.
 Integral derivatives from FoFJK, PRISM(SPDF).
 Do as many integral derivatives as possible in FoFJK.
 G2DrvN: MDV=    4294965288.
 G2DrvN: will do    27 centers at a time, making    1 passes.
 Calling FoFCou, ICntrl=  3107 FMM=F I1Cent=   0 AccDes= 0.00D+00.
 FoFJK:  IHMeth= 1 ICntrl=    3107 DoSepK=F KAlg= 0 I1Cent=           0 FoldK=F
 IRaf=         0 NMat=       1 IRICut=       1 DoRegI=T DoRafI=F ISym2E= 0 IDoP0=0 IntGTp=1.
 FoFCou: FMM=F IPFlag=           0 FMFlag=      100000 FMFlg1=           0
         NFxFlg=           0 DoJE=F BraDBF=F KetDBF=F FulRan=T
         wScrn=  0.000000 ICntrl=      3107 IOpCl=  0 I1Cent=           0 NGrid=           0
         NMat0=    1 NMatS0=      1 NMatT0=    0 NMatD0=    1 NMtDS0=    0 NMtDT0=    0
 Symmetry not used in FoFCou.
 NEqPCM:  Using equilibrium solvation (IEInf=0, Eps=  20.4930, EpsInf=   1.8463)
 G2PCM: DoFxE=T DoFxN=T DoGrad=T DoDP/DQ/DG/TGxP=FFFF NFrqRd=   0 IEInf=0 SqF1=F DoCFld=F IF1Alg=4.
 GePol: Maximum number of non-zero 1st derivatives   =     229
 End of G2Drv F.D. properties file   721 does not exist.
 End of G2Drv F.D. properties file   722 does not exist.
 End of G2Drv F.D. properties file   788 does not exist.
 Leave Link 1110 at Thu Jan 29 20:38:22 2026, MaxMem=  4294967296 cpu:             407.3 elap:              25.4
 (Enter /root/g16/l1002.exe)
 Minotr:  Closed shell wavefunction.
          IDoAtm=11111111111111111111111111
 NEqPCM:  Using equilibrium solvation (IEInf=0, Eps=  20.4930, EpsInf=   1.8463)
          Direct CPHF calculation.
          Differentiating once with respect to nuclear coordinates.
          Requested convergence is 1.0D-08 RMS, and 1.0D-07 maximum.
          Secondary convergence is 1.0D-12 RMS, and 1.0D-12 maximum.
          NewPWx=T KeepS1=F KeepF1=F KeepIn=T MapXYZ=F SortEE=F KeepMc=T.
         7756 words used for storage of precomputed grid.
 Keep R1 ints in memory in canonical form, NReq=558668828.
 FoFCou: FMM=F IPFlag=           0 FMFlag=           0 FMFlg1=           0
         NFxFlg=           0 DoJE=F BraDBF=F KetDBF=F FulRan=T
         wScrn=  0.000000 ICntrl=       600 IOpCl=  0 I1Cent=           0 NGrid=           0
         NMat0=    1 NMatS0=  32896 NMatT0=    0 NMatD0=    1 NMtDS0=    0 NMtDT0=    0
 Symmetry not used in FoFCou.
 Two-electron integral symmetry not used.
          MDV=    4294967296 using IRadAn=       1.
          Solving linear equations simultaneously, MaxMat=       0.
          There are    81 degrees of freedom in the 1st order CPHF.  IDoFFX=6 NUNeed=     0.
     75 vectors produced by pass  0 Test12= 1.29D-14 1.23D-09 XBig12= 1.29D-01 1.07D-01.
 AX will form    75 AO Fock derivatives at one time.
     75 vectors produced by pass  1 Test12= 1.29D-14 1.23D-09 XBig12= 4.01D-02 6.70D-02.
     75 vectors produced by pass  2 Test12= 1.29D-14 1.23D-09 XBig12= 4.08D-04 2.43D-03.
     75 vectors produced by pass  3 Test12= 1.29D-14 1.23D-09 XBig12= 1.77D-06 1.66D-04.
     75 vectors produced by pass  4 Test12= 1.29D-14 1.23D-09 XBig12= 5.21D-09 8.65D-06.
     54 vectors produced by pass  5 Test12= 1.29D-14 1.23D-09 XBig12= 6.44D-12 3.22D-07.
     13 vectors produced by pass  6 Test12= 1.29D-14 1.23D-09 XBig12= 5.87D-15 6.37D-09.
 InvSVY:  IOpt=1 It=  1 EMax= 3.33D-16
 Solved reduced A of dimension   442 with    81 vectors.
 End of Minotr F.D. properties file   721 does not exist.
 End of Minotr F.D. properties file   722 does not exist.
 End of Minotr F.D. properties file   788 does not exist.
 Leave Link 1002 at Thu Jan 29 20:38:54 2026, MaxMem=  4294967296 cpu:             498.9 elap:              31.3
 (Enter /root/g16/l601.exe)
 Copying SCF densities to generalized density rwf, IOpCl= 0 IROHF=0.

 **********************************************************************

            Population analysis using the SCF density.

 **********************************************************************

 Orbital symmetries:
       Occupied  (A) (A) (A) (A) (A) (A) (A) (A) (A) (A) (A) (A)
                 (A) (A) (A) (A) (A) (A) (A) (A) (A) (A) (A) (A)
                 (A) (A) (A) (A) (A) (A) (A) (A) (A) (A) (A) (A)
                 (A) (A) (A) (A) (A) (A) (A) (A) (A) (A) (A) (A)
                 (A) (A) (A)
       Virtual   (A) (A) (A) (A) (A) (A) (A) (A) (A) (A) (A) (A)
                 (A) (A) (A) (A) (A) (A) (A) (A) (A) (A) (A) (A)
                 (A) (A) (A) (A) (A) (A) (A) (A) (A) (A) (A) (A)
                 (A) (A) (A) (A) (A) (A) (A) (A) (A) (A) (A) (A)
                 (A) (A) (A) (A) (A) (A) (A) (A) (A) (A) (A) (A)
                 (A) (A) (A) (A) (A) (A) (A) (A) (A) (A) (A) (A)
                 (A) (A) (A) (A) (A) (A) (A) (A) (A) (A) (A) (A)
                 (A) (A) (A) (A) (A) (A) (A) (A) (A) (A) (A) (A)
                 (A) (A) (A) (A) (A) (A) (A) (A) (A) (A) (A) (A)
                 (A) (A) (A) (A) (A) (A) (A) (A) (A) (A) (A) (A)
                 (A) (A) (A) (A) (A) (A) (A) (A) (A) (A) (A) (A)
                 (A) (A) (A) (A) (A) (A) (A) (A) (A) (A) (A) (A)
                 (A) (A) (A) (A) (A) (A) (A) (A) (A) (A) (A) (A)
                 (A) (A) (A) (A) (A) (A) (A) (A) (A) (A) (A) (A)
                 (A) (A) (A) (A) (A) (A) (A) (A) (A) (A) (A) (A)
                 (A) (A) (A) (A) (A) (A) (A) (A) (A) (A) (A) (A)
                 (A) (A) (A) (A) (A) (A) (A) (A) (A) (A) (A) (A)
                 (A)
 The electronic state is 1-A.
 Alpha  occ. eigenvalues --  -19.15260 -19.13325 -19.12858 -10.28346 -10.27370
 Alpha  occ. eigenvalues --  -10.25696 -10.24560 -10.22264 -10.21093 -10.20583
 Alpha  occ. eigenvalues --  -10.20109 -10.20022 -10.19502 -10.19478  -1.06902
 Alpha  occ. eigenvalues --   -1.04407  -1.03294  -0.85411  -0.80103  -0.79246
 Alpha  occ. eigenvalues --   -0.76694  -0.72222  -0.64711  -0.63892  -0.62939
 Alpha  occ. eigenvalues --   -0.57570  -0.55608  -0.54095  -0.51690  -0.50481
 Alpha  occ. eigenvalues --   -0.48848  -0.46870  -0.45409  -0.44807  -0.44257
 Alpha  occ. eigenvalues --   -0.43549  -0.42960  -0.42391  -0.39882  -0.39657
 Alpha  occ. eigenvalues --   -0.39024  -0.37119  -0.36809  -0.35841  -0.35352
 Alpha  occ. eigenvalues --   -0.35084  -0.33449  -0.30467  -0.27793  -0.25924
 Alpha  occ. eigenvalues --   -0.24326
 Alpha virt. eigenvalues --   -0.06424  -0.03045   0.03795   0.05078   0.06834
 Alpha virt. eigenvalues --    0.07856   0.09152   0.09748   0.10919   0.11893
 Alpha virt. eigenvalues --    0.12460   0.13760   0.13978   0.15169   0.15715
 Alpha virt. eigenvalues --    0.15973   0.17836   0.19612   0.19966   0.21133
 Alpha virt. eigenvalues --    0.22581   0.23261   0.25765   0.26347   0.26973
 Alpha virt. eigenvalues --    0.27560   0.30256   0.33466   0.33998   0.35936
 Alpha virt. eigenvalues --    0.37136   0.40132   0.43682   0.44137   0.45070
 Alpha virt. eigenvalues --    0.47083   0.48671   0.49626   0.49911   0.51220
 Alpha virt. eigenvalues --    0.52265   0.54113   0.56084   0.56935   0.57207
 Alpha virt. eigenvalues --    0.57937   0.58404   0.59498   0.60808   0.61532
 Alpha virt. eigenvalues --    0.62226   0.62917   0.63530   0.64218   0.64547
 Alpha virt. eigenvalues --    0.65404   0.65610   0.66298   0.66814   0.67448
 Alpha virt. eigenvalues --    0.67879   0.68758   0.69495   0.70343   0.70486
 Alpha virt. eigenvalues --    0.71155   0.72379   0.72832   0.73549   0.75674
 Alpha virt. eigenvalues --    0.77159   0.78471   0.80409   0.81012   0.85131
 Alpha virt. eigenvalues --    0.87743   0.88315   0.90184   0.91836   0.93601
 Alpha virt. eigenvalues --    0.94023   1.00213   1.01312   1.06484   1.08910
 Alpha virt. eigenvalues --    1.11141   1.13666   1.15070   1.16439   1.17236
 Alpha virt. eigenvalues --    1.19227   1.20045   1.22687   1.26199   1.29784
 Alpha virt. eigenvalues --    1.31248   1.34098   1.36482   1.38957   1.39998
 Alpha virt. eigenvalues --    1.41139   1.44097   1.47033   1.49366   1.52463
 Alpha virt. eigenvalues --    1.54546   1.55646   1.56828   1.58047   1.60560
 Alpha virt. eigenvalues --    1.62401   1.65295   1.65932   1.69381   1.70050
 Alpha virt. eigenvalues --    1.71263   1.72246   1.73620   1.74308   1.75426
 Alpha virt. eigenvalues --    1.76173   1.76992   1.78567   1.79691   1.80377
 Alpha virt. eigenvalues --    1.80897   1.82460   1.83212   1.83886   1.85532
 Alpha virt. eigenvalues --    1.86984   1.88422   1.89535   1.90718   1.91186
 Alpha virt. eigenvalues --    1.92083   1.93685   1.96527   1.97327   1.98481
 Alpha virt. eigenvalues --    2.00339   2.02239   2.04125   2.05226   2.06903
 Alpha virt. eigenvalues --    2.08201   2.10652   2.12667   2.13890   2.15598
 Alpha virt. eigenvalues --    2.18108   2.18872   2.21063   2.22053   2.24955
 Alpha virt. eigenvalues --    2.27258   2.28144   2.32875   2.33431   2.35400
 Alpha virt. eigenvalues --    2.36702   2.38266   2.40352   2.45234   2.46111
 Alpha virt. eigenvalues --    2.47774   2.49794   2.52367   2.55066   2.57038
 Alpha virt. eigenvalues --    2.57496   2.62738   2.63335   2.65229   2.66838
 Alpha virt. eigenvalues --    2.69080   2.71114   2.72304   2.74684   2.76512
 Alpha virt. eigenvalues --    2.77916   2.81053   2.83588   2.88419   2.89835
 Alpha virt. eigenvalues --    2.90177   2.94133   2.94389   2.96941   2.98570
 Alpha virt. eigenvalues --    3.00181   3.03723   3.05135   3.07255   3.10484
 Alpha virt. eigenvalues --    3.14370   3.15868   3.17377   3.22560   3.31179
 Alpha virt. eigenvalues --    3.37019   3.41038   3.57674   3.61817   3.63985
          Condensed to atoms (all electrons):
               1          2          3          4          5          6
     1  O    7.657284   0.729963  -0.097107   0.006902  -0.000097   0.000002
     2  C    0.729963   4.873033   0.182161   0.074779   0.008910   0.000006
     3  C   -0.097107   0.182161   5.455080   0.304278  -0.049090  -0.003042
     4  C    0.006902   0.074779   0.304278   5.520157   0.351049  -0.049205
     5  C   -0.000097   0.008910  -0.049090   0.351049   4.616165   0.384922
     6  C    0.000002   0.000006  -0.003042  -0.049205   0.384922   4.670735
     7  C    0.000002  -0.001432   0.003905   0.004254  -0.054232   0.363742
     8  C   -0.000012   0.001826  -0.003399   0.005733  -0.015474  -0.021517
     9  O   -0.000000  -0.000020   0.000009  -0.000229  -0.000016   0.002053
    10  C    0.000244  -0.014478  -0.001524  -0.046115  -0.001620   0.019074
    11  C    0.000434  -0.056812   0.032895  -0.049364   0.001104  -0.002246
    12  C   -0.086289   0.235462  -0.169050   0.006472  -0.001984   0.000530
    13  O    0.001447  -0.024503  -0.000588  -0.052333   0.005004  -0.000289
    14  C    0.000496  -0.054195   0.009165   0.110453  -0.070465  -0.003156
    15  H    0.005591  -0.050994   0.409704  -0.056825  -0.021832   0.000723
    16  H   -0.000010   0.000803  -0.022372  -0.007389   0.356625  -0.009212
    17  H    0.000002  -0.000817   0.003501   0.006591   0.331574  -0.007467
    18  H    0.000000   0.000089  -0.000997  -0.024556   0.000234   0.365786
    19  H   -0.000000   0.000010   0.000162   0.008975  -0.005582   0.342261
    20  H   -0.000000   0.000035  -0.000064  -0.000687   0.007316  -0.000055
    21  H   -0.000012   0.000275  -0.002954   0.010518  -0.008857  -0.020641
    22  H   -0.000010   0.000313  -0.000440   0.010558  -0.000235  -0.001343
    23  H    0.001637   0.000219  -0.002044   0.005378   0.000623   0.000013
    24  H   -0.000215   0.003175  -0.001218   0.001247  -0.000049  -0.000012
    25  H    0.009027  -0.018595   0.014570   0.000468   0.000125  -0.000012
    26  H    0.000016   0.000856   0.006988  -0.033999   0.000840  -0.005122
               7          8          9         10         11         12
     1  O    0.000002  -0.000012  -0.000000   0.000244   0.000434  -0.086289
     2  C   -0.001432   0.001826  -0.000020  -0.014478  -0.056812   0.235462
     3  C    0.003905  -0.003399   0.000009  -0.001524   0.032895  -0.169050
     4  C    0.004254   0.005733  -0.000229  -0.046115  -0.049364   0.006472
     5  C   -0.054232  -0.015474  -0.000016  -0.001620   0.001104  -0.001984
     6  C    0.363742  -0.021517   0.002053   0.019074  -0.002246   0.000530
     7  C    4.914687   0.362615  -0.092106  -0.223104   0.009780  -0.000799
     8  C    0.362615   4.791043   0.724407   0.138545  -0.024653   0.009339
     9  O   -0.092106   0.724407   7.668001  -0.103329   0.000894   0.000086
    10  C   -0.223104   0.138545  -0.103329   5.682893   0.274768  -0.068118
    11  C    0.009780  -0.024653   0.000894   0.274768   4.821404   0.296129
    12  C   -0.000799   0.009339   0.000086  -0.068118   0.296129   5.090752
    13  O    0.000178   0.005017  -0.000021  -0.029952  -0.077549   0.282164
    14  C    0.011403  -0.005659   0.006421   0.134494  -0.004872  -0.052567
    15  H   -0.000294   0.000147   0.000001  -0.000633  -0.001347   0.017556
    16  H   -0.012147   0.000314   0.000000  -0.001365   0.000060  -0.000232
    17  H    0.007735   0.000227   0.000004   0.000212   0.000041   0.000200
    18  H   -0.043327   0.000793   0.000975  -0.011059   0.000652  -0.000216
    19  H    0.005598   0.003129  -0.000179   0.000065  -0.000012  -0.000005
    20  H    0.289584   0.006967   0.010876   0.017538  -0.000531   0.000015
    21  H    0.329881   0.003005   0.002164   0.006806   0.000235  -0.000450
    22  H    0.013689   0.012457   0.006312   0.266576   0.015103  -0.006601
    23  H    0.003206  -0.002602  -0.000212   0.000064   0.343242  -0.015934
    24  H   -0.000347   0.001298   0.001649   0.015872   0.305799   0.025928
    25  H    0.000031  -0.000393  -0.000005   0.005932   0.001212   0.313454
    26  H    0.000307  -0.001318   0.000011  -0.013050   0.011985   0.002118
              13         14         15         16         17         18
     1  O    0.001447   0.000496   0.005591  -0.000010   0.000002   0.000000
     2  C   -0.024503  -0.054195  -0.050994   0.000803  -0.000817   0.000089
     3  C   -0.000588   0.009165   0.409704  -0.022372   0.003501  -0.000997
     4  C   -0.052333   0.110453  -0.056825  -0.007389   0.006591  -0.024556
     5  C    0.005004  -0.070465  -0.021832   0.356625   0.331574   0.000234
     6  C   -0.000289  -0.003156   0.000723  -0.009212  -0.007467   0.365786
     7  C    0.000178   0.011403  -0.000294  -0.012147   0.007735  -0.043327
     8  C    0.005017  -0.005659   0.000147   0.000314   0.000227   0.000793
     9  O   -0.000021   0.006421   0.000001   0.000000   0.000004   0.000975
    10  C   -0.029952   0.134494  -0.000633  -0.001365   0.000212  -0.011059
    11  C   -0.077549  -0.004872  -0.001347   0.000060   0.000041   0.000652
    12  C    0.282164  -0.052567   0.017556  -0.000232   0.000200  -0.000216
    13  O    7.996127   0.280557  -0.000817  -0.000184   0.000108   0.000021
    14  C    0.280557   5.054511   0.010241   0.013373  -0.010170   0.019810
    15  H   -0.000817   0.010241   0.697823   0.007120   0.000711  -0.000017
    16  H   -0.000184   0.013373   0.007120   0.690116  -0.024420   0.007751
    17  H    0.000108  -0.010170   0.000711  -0.024420   0.667235  -0.012139
    18  H    0.000021   0.019810  -0.000017   0.007751  -0.012139   0.685197
    19  H   -0.000000  -0.000723  -0.000068  -0.013275  -0.002089  -0.021603
    20  H    0.000006  -0.000065  -0.000009   0.000272  -0.000381   0.000693
    21  H    0.000016  -0.006158   0.000200   0.005568   0.000599   0.008678
    22  H    0.003260  -0.007289   0.000029   0.000026  -0.000020  -0.000072
    23  H    0.004085  -0.015306  -0.000516  -0.000040  -0.000015  -0.000016
    24  H    0.001785   0.003310   0.000043  -0.000001   0.000003  -0.000011
    25  H   -0.017387   0.002203  -0.000550  -0.000003   0.000001   0.000001
    26  H   -0.020317   0.366519  -0.000339  -0.000326   0.004387   0.000043
              19         20         21         22         23         24
     1  O   -0.000000  -0.000000  -0.000012  -0.000010   0.001637  -0.000215
     2  C    0.000010   0.000035   0.000275   0.000313   0.000219   0.003175
     3  C    0.000162  -0.000064  -0.002954  -0.000440  -0.002044  -0.001218
     4  C    0.008975  -0.000687   0.010518   0.010558   0.005378   0.001247
     5  C   -0.005582   0.007316  -0.008857  -0.000235   0.000623  -0.000049
     6  C    0.342261  -0.000055  -0.020641  -0.001343   0.000013  -0.000012
     7  C    0.005598   0.289584   0.329881   0.013689   0.003206  -0.000347
     8  C    0.003129   0.006967   0.003005   0.012457  -0.002602   0.001298
     9  O   -0.000179   0.010876   0.002164   0.006312  -0.000212   0.001649
    10  C    0.000065   0.017538   0.006806   0.266576   0.000064   0.015872
    11  C   -0.000012  -0.000531   0.000235   0.015103   0.343242   0.305799
    12  C   -0.000005   0.000015  -0.000450  -0.006601  -0.015934   0.025928
    13  O   -0.000000   0.000006   0.000016   0.003260   0.004085   0.001785
    14  C   -0.000723  -0.000065  -0.006158  -0.007289  -0.015306   0.003310
    15  H   -0.000068  -0.000009   0.000200   0.000029  -0.000516   0.000043
    16  H   -0.013275   0.000272   0.005568   0.000026  -0.000040  -0.000001
    17  H   -0.002089  -0.000381   0.000599  -0.000020  -0.000015   0.000003
    18  H   -0.021603   0.000693   0.008678  -0.000072  -0.000016  -0.000011
    19  H    0.671170  -0.014951  -0.002762   0.000050   0.000011   0.000001
    20  H   -0.014951   0.690173  -0.012031  -0.000683  -0.000373   0.000011
    21  H   -0.002762  -0.012031   0.651060  -0.000127   0.000962  -0.000051
    22  H    0.000050  -0.000683  -0.000127   0.682416   0.006589  -0.017894
    23  H    0.000011  -0.000373   0.000962   0.006589   0.654655  -0.019861
    24  H    0.000001   0.000011  -0.000051  -0.017894  -0.019861   0.660449
    25  H    0.000000  -0.000000   0.000006   0.000302   0.005809  -0.015542
    26  H   -0.000020  -0.000003   0.000131  -0.012353  -0.000496  -0.000179
              25         26
     1  O    0.009027   0.000016
     2  C   -0.018595   0.000856
     3  C    0.014570   0.006988
     4  C    0.000468  -0.033999
     5  C    0.000125   0.000840
     6  C   -0.000012  -0.005122
     7  C    0.000031   0.000307
     8  C   -0.000393  -0.001318
     9  O   -0.000005   0.000011
    10  C    0.005932  -0.013050
    11  C    0.001212   0.011985
    12  C    0.313454   0.002118
    13  O   -0.017387  -0.020317
    14  C    0.002203   0.366519
    15  H   -0.000550  -0.000339
    16  H   -0.000003  -0.000326
    17  H    0.000001   0.004387
    18  H    0.000001   0.000043
    19  H    0.000000  -0.000020
    20  H   -0.000000  -0.000003
    21  H    0.000006   0.000131
    22  H    0.000302  -0.012353
    23  H    0.005809  -0.000496
    24  H   -0.015542  -0.000179
    25  H    0.695036  -0.000402
    26  H   -0.000402   0.672574
 Mulliken charges:
               1
     1  O   -0.229297
     2  C    0.109932
     3  C   -0.068528
     4  C   -0.107110
     5  C    0.165043
     6  C   -0.026527
     7  C    0.107192
     8  C    0.008166
     9  O   -0.227745
    10  C   -0.048737
    11  C    0.101647
    12  C    0.122040
    13  O   -0.355835
    14  C    0.207666
    15  H   -0.015645
    16  H    0.008951
    17  H    0.034387
    18  H    0.023290
    19  H    0.029838
    20  H    0.006347
    21  H    0.033940
    22  H    0.029387
    23  H    0.030923
    24  H    0.034811
    25  H    0.004714
    26  H    0.021148
 Sum of Mulliken charges =  -0.00000
 Mulliken charges with hydrogens summed into heavy atoms:
               1
     1  O   -0.229297
     2  C    0.109932
     3  C   -0.084173
     4  C   -0.107110
     5  C    0.208381
     6  C    0.026602
     7  C    0.147480
     8  C    0.008166
     9  O   -0.227745
    10  C   -0.019350
    11  C    0.167382
    12  C    0.126754
    13  O   -0.355835
    14  C    0.228814
 APT charges:
               1
     1  O    0.787547
     2  C   -0.907982
     3  C   -0.528867
     4  C   -0.345248
     5  C   -0.512919
     6  C   -0.694893
     7  C   -0.394713
     8  C   -1.155171
     9  O    0.693288
    10  C   -0.433679
    11  C   -0.452057
    12  C   -0.478884
    13  O   -0.146200
    14  C   -0.322803
    15  H    0.443129
    16  H    0.381932
    17  H    0.459298
    18  H    0.213570
    19  H    0.647056
    20  H    0.571007
    21  H    0.069032
    22  H    0.428016
    23  H    0.155212
    24  H    0.535035
    25  H    0.567799
    26  H    0.421494
 Sum of APT charges =  -0.00000
 APT charges with hydrogens summed into heavy atoms:
               1
     1  O    0.787547
     2  C   -0.907982
     3  C   -0.085739
     4  C   -0.345248
     5  C    0.328312
     6  C    0.165734
     7  C    0.245327
     8  C   -1.155171
     9  O    0.693288
    10  C   -0.005663
    11  C    0.238189
    12  C    0.088915
    13  O   -0.146200
    14  C    0.098692
 Electronic spatial extent (au):  <R**2>=           2277.2810
 Charge=              0.0000 electrons
 Dipole moment (field-independent basis, Debye):
    X=              3.5425    Y=              2.8897    Z=              1.5805  Tot=              4.8371
 Quadrupole moment (field-independent basis, Debye-Ang):
   XX=            -97.7899   YY=            -80.3955   ZZ=            -83.8622
   XY=             12.7854   XZ=             -1.5224   YZ=             -1.8787
 Traceless Quadrupole moment (field-independent basis, Debye-Ang):
   XX=            -10.4407   YY=              6.9537   ZZ=              3.4870
   XY=             12.7854   XZ=             -1.5224   YZ=             -1.8787
 Octapole moment (field-independent basis, Debye-Ang**2):
  XXX=             34.9721  YYY=             11.6097  ZZZ=              0.2179  XYY=            -19.9112
  XXY=             14.8017  XXZ=             26.4159  XZZ=             17.9522  YZZ=              0.7968
  YYZ=              4.8983  XYZ=             -6.5608
 Hexadecapole moment (field-independent basis, Debye-Ang**3):
 XXXX=          -1769.2201 YYYY=           -893.5638 ZZZZ=           -425.5795 XXXY=             74.5771
 XXXZ=            -76.8664 YYYX=             49.2821 YYYZ=            -18.9377 ZZZX=              4.7585
 ZZZY=              6.7301 XXYY=           -444.4528 XXZZ=           -377.5906 YYZZ=           -212.9790
 XXYZ=            -13.7454 YYXZ=             15.0846 ZZXY=              0.8380
 N-N= 9.421100100967D+02 E-N=-3.400970499773D+03  KE= 6.455361564607D+02
  Exact polarizability:   0.000   0.000   0.000   0.000   0.000   0.000
 Approx polarizability: 201.127   2.687 159.560  30.286   0.647 156.366
 No NMR shielding tensors so no spin-rotation constants.
 Leave Link  601 at Thu Jan 29 20:38:54 2026, MaxMem=  4294967296 cpu:               2.1 elap:               0.2
 (Enter /root/g16/l701.exe)
 ... and contract with generalized density number  0.
 Compute integral second derivatives.
 R6Disp: Adding Grimme-D3(BJ) dispersion energy 2nd derivatives to the Hessian.
   1 Symmetry operations used in ECPInt.
 ECPInt:  NShTT=    7260 NPrTT=   26324 LenC2=    7127 LenP2D=   19926.
 LDataN:  DoStor=T MaxTD1= 6 Len=  172
 D2PCM: PCM CHGder 2nd derivatives, FixD1E=F FixD2E=F DoIter=F DoCFld=F I1PDM=0
 GePol: Maximum number of non-zero 2nd derivatives   =     229
 Leave Link  701 at Thu Jan 29 20:38:56 2026, MaxMem=  4294967296 cpu:              38.3 elap:               2.4
 (Enter /root/g16/l702.exe)
 L702 exits ... SP integral derivatives will be done elsewhere.
 Leave Link  702 at Thu Jan 29 20:38:56 2026, MaxMem=  4294967296 cpu:               0.1 elap:               0.0
 (Enter /root/g16/l703.exe)
 Integral derivatives from FoFJK, PRISM(SPDF).
 Compute integral second derivatives, UseDBF=F ICtDFT=           0.
 Calling FoFJK, ICntrl=    100147 FMM=F ISym2X=0 I1Cent= 0 IOpClX= 0 NMat=1 NMatS=1 NMatT=0.
 FoFJK:  IHMeth= 1 ICntrl=  100147 DoSepK=F KAlg= 0 I1Cent=           0 FoldK=F
 IRaf=         0 NMat=       1 IRICut=       1 DoRegI=T DoRafI=F ISym2E= 0 IDoP0=0 IntGTp=1.
 FoFCou: FMM=F IPFlag=           0 FMFlag=      100000 FMFlg1=         800
         NFxFlg=           0 DoJE=F BraDBF=F KetDBF=F FulRan=T
         wScrn=  0.000000 ICntrl=    100147 IOpCl=  0 I1Cent=           0 NGrid=           0
         NMat0=    1 NMatS0=      1 NMatT0=    0 NMatD0=    1 NMtDS0=    0 NMtDT0=    0
 Symmetry not used in FoFCou.
 Leave Link  703 at Thu Jan 29 20:39:32 2026, MaxMem=  4294967296 cpu:             570.2 elap:              35.7
 (Enter /root/g16/l716.exe)
 Dipole        = 1.39371995D+00 1.13691425D+00 6.21804637D-01
 Polarizability= 0.00000000D+00 0.00000000D+00 0.00000000D+00
                 0.00000000D+00 0.00000000D+00 0.00000000D+00
 ***** Axes restored to original set *****
 -------------------------------------------------------------------
 Center     Atomic                   Forces (Hartrees/Bohr)
 Number     Number              X              Y              Z
 -------------------------------------------------------------------
      1        8           0.005876876    0.001056363    0.004786930
      2        6           0.000923783   -0.003995691   -0.007456296
      3        6           0.004669922    0.003418488    0.001782993
      4        6          -0.004637901    0.005249232   -0.006961452
      5        6           0.000171296   -0.005620384    0.000152706
      6        6           0.006137335    0.000881553    0.005826872
      7        6          -0.006360600   -0.000986140   -0.002380789
      8        6           0.000422662    0.005143092   -0.002330528
      9        8          -0.002680510   -0.009352360    0.001427049
     10        6           0.000525508   -0.001526775   -0.001873040
     11        6           0.001800690    0.002952443   -0.002898633
     12        6           0.003785248   -0.002991765    0.005667229
     13        8           0.000623283    0.000711336   -0.003906002
     14        6          -0.000182877   -0.002038199   -0.000480110
     15        1          -0.001507068    0.006485862    0.006686957
     16        1          -0.000271496    0.004539809    0.004286326
     17        1          -0.000731323    0.004509397   -0.005942902
     18        1          -0.003395834   -0.001394950   -0.006647741
     19        1          -0.006124753    0.002185604    0.000068658
     20        1          -0.002420454   -0.002685588    0.003107175
     21        1           0.003288931    0.002199561    0.005958189
     22        1          -0.001595204   -0.001733081   -0.002123995
     23        1          -0.000060793   -0.001003255    0.006138482
     24        1           0.001096218   -0.006432778   -0.000317872
     25        1           0.004774207   -0.000993444    0.000601652
     26        1          -0.004127144    0.001421670   -0.003171858
 -------------------------------------------------------------------
 Cartesian Forces:  Max     0.009352360 RMS     0.003840313
 FormGI is forming the generalized inverse of G from B-inverse, IUseBI=4.
 Leave Link  716 at Thu Jan 29 20:39:32 2026, MaxMem=  4294967296 cpu:               0.3 elap:               0.0
 (Enter /root/g16/l103.exe)

 GradGradGradGradGradGradGradGradGradGradGradGradGradGradGradGradGradGrad
 Berny optimization.
 Red2BG is reusing G-inverse.
 Internal  Forces:  Max     0.012309634 RMS     0.002882691
 Search for a local minimum.
 Step number   1 out of a maximum of  156
 All quantities printed in internal units (Hartrees-Bohrs-Radians)
[...]
 ,0.00102979,-0.00073694,-0.00105803,-0.00015725,0.00051262,0.00007703,
 -0.00002680,-0.00030938,-0.00011870,-0.00002028,0.00003358,0.00006783,
 0.00001563,-0.00010076,0.00003905,-0.00006468,0.00019617,0.00024508,0.
 00031780,-0.00018130,-0.00039496,-0.00008296,-0.00012817,0.00009598,0.
 00107900,0.00051039,-0.00035950,0.00038543,-0.00000079,0.00016421,0.00
 618857,-0.00342020,-0.00190006,0.24312449,-0.00056102,0.00010608,-0.00
 004188,0.00088389,-0.00039727,-0.00063596,-0.00114157,0.00123473,-0.00
 030461,-0.00222733,-0.00366032,0.00093775,-0.02166532,0.00949852,0.006
 78757,0.11038742,-0.10829711,-0.04168669,0.01819686,-0.01480334,-0.005
 81445,-0.00030144,0.00092891,0.00536532,-0.00018656,-0.00233117,-0.001
 12992,-0.00016591,0.00017643,-0.00040838,-0.00026545,0.00006546,-0.000
 06728,0.00000436,-0.00011795,0.00003883,0.00020646,0.00031061,0.000162
 55,-0.00005835,-0.00038424,-0.00030970,-0.00006343,-0.00014416,0.00010
 984,0.00012886,0.00121226,0.00007219,0.00077027,0.00042962,0.00002040,
 0.00959619,-0.00587714,-0.00362200,-0.11369420,0.12103048,0.00012000,-
 0.00002537,0.00007180,-0.00013577,0.00011624,-0.00002150,0.00024664,-0
 .00006404,-0.00014618,-0.00026906,0.00020292,0.00049307,-0.00018856,-0
 .00200955,-0.00046522,0.07010752,-0.04206312,-0.07179988,-0.01859742,0
 .01453424,0.00621933,-0.00058825,-0.00006241,-0.00421688,0.00038395,0.
 00198293,0.00079795,0.00004230,0.00019484,0.00029588,0.00006090,-0.000
 08499,0.00002602,0.00003283,0.00008115,-0.00010755,0.00014280,-0.00017
 865,0.00023994,-0.00035995,0.00040520,-0.00023633,-0.00001011,-0.00000
 665,0.00002226,-0.00047058,0.00045619,0.00093984,0.00001398,-0.0001426
 0,-0.00014563,0.02326496,-0.01332310,-0.00853293,-0.07363691,0.0408061
 8,0.07466725,-0.00016732,-0.00000714,-0.00014451,0.00025435,-0.0000241
 5,0.00016901,0.00001608,-0.00009565,0.00023736,-0.00021365,0.00021398,
 -0.00012330,0.00040407,0.00130130,-0.00112898,0.00836111,0.00464587,-0
 .00374639,-0.24447867,-0.08217204,0.09031010,-0.01661180,-0.00724308,0
 .00728564,0.00341333,-0.00101740,-0.00217568,0.00088679,0.00250697,0.0
 0108104,0.00029072,0.00002359,0.00009507,0.00006957,-0.00002646,-0.000
 02460,-0.00020739,-0.00014875,0.00003510,0.00035935,0.00023661,-0.0003
 7373,0.00000092,0.00000461,-0.00002609,-0.00001397,0.00004332,-0.00000
 021,0.00022695,0.00031685,-0.00013934,-0.00005528,-0.00036371,0.000063
 39,0.00135597,0.00001755,-0.00003839,0.25981242,-0.00018765,0.00008110
 ,-0.00004495,0.00031386,-0.00029910,-0.00009359,-0.00028823,0.00029391
 ,0.00003341,0.00103523,-0.00051595,0.00003525,0.00099697,-0.00191756,0
 .00404598,-0.01767722,-0.00937897,0.00654389,-0.08604397,-0.07979997,0
 .04081154,0.02587927,0.00638718,-0.01159321,-0.00094475,0.00192919,0.0
 0011353,0.00043311,-0.00388712,-0.00166478,-0.00007984,0.00004259,-0.0
 0013149,0.00000953,-0.00005083,0.00004895,-0.00000098,0.00018995,0.000
 04689,-0.00028194,-0.00023089,0.00013458,0.00000644,0.00000417,0.00002
 283,0.00005139,0.00013866,-0.00012748,-0.00102513,-0.00098092,0.000237
 86,0.00006587,0.00013159,0.00035761,-0.00053213,0.00053924,-0.00024651
 ,0.08617568,0.09071385,0.00007660,0.00002360,0.00003831,-0.00004729,-0
 .00003811,-0.00001686,0.00019957,-0.00013687,0.00038944,-0.00095146,-0
 .00017093,-0.00020333,-0.00138849,0.00119629,-0.00215050,0.01603839,0.
 00688881,-0.00621608,0.08903331,0.03890260,-0.08674396,0.01651681,0.00
 293487,-0.00855995,-0.00321559,0.00256364,0.00047448,0.00070352,-0.002
 20219,0.00042374,0.00031744,-0.00000062,-0.00029750,0.00002530,-0.0000
 5172,-0.00000895,0.00017154,0.00001607,-0.00001475,-0.00036311,-0.0000
 8859,0.00019735,0.00001305,0.00002994,0.00000916,0.00007285,0.00018679
 ,0.00004184,0.00061009,0.00064348,0.00002955,-0.00005102,-0.00021980,-
 0.00030213,-0.00000961,-0.00044809,0.00120933,-0.09815115,-0.04262754,
 0.09168876,0.00030101,-0.00002803,0.00012962,-0.00048746,0.00016304,0.
 00003009,-0.00003170,-0.00039366,0.00020496,-0.00029310,-0.00052053,0.
 00086152,0.00002886,-0.00068484,0.00126605,-0.00195643,-0.00256001,-0.
 00445145,-0.12396010,-0.04947336,-0.10446553,0.01275875,0.00302135,0.0
 1316539,-0.00129469,0.00220590,-0.00208342,-0.00195507,-0.00075880,-0.
 00234778,-0.00026036,0.00004781,0.00057673,-0.00021715,0.00018967,-0.0
 0006532,0.00012105,-0.00006741,-0.00004867,-0.00006715,0.00015962,0.00
 022254,0.00001336,0.00001130,-0.00000589,0.00027689,0.00022855,-0.0000
 6735,-0.00009247,0.00008203,-0.00004902,0.00005213,0.00086621,-0.00012
 491,-0.00017536,-0.00001250,0.00001951,-0.01298451,-0.00884899,-0.0201
 2537,0.13037460,0.00007203,-0.00000865,0.00004194,-0.00006051,0.000028
 93,-0.00003038,-0.00009991,-0.00004584,0.00029220,-0.00079118,-0.00019
 399,0.00036960,-0.00008036,0.00175236,0.00053465,0.01262518,0.00835666
 ,0.02133188,-0.05407318,-0.07635982,-0.07828269,-0.01832203,-0.0096563
 2,-0.01753705,0.00491503,-0.00326941,0.00195626,0.00175198,0.00032925,
 0.00173105,0.00024384,0.00000117,-0.00050994,0.00011569,-0.00002874,0.
 00001367,0.00009622,-0.00004508,-0.00004672,0.00004047,-0.00005466,0.0
 0015187,-0.00001360,-0.00000066,-0.00000643,0.00020698,-0.00031102,-0.
 00041036,0.00027720,0.00022688,-0.00019202,0.00115232,-0.00344266,0.00
 300158,-0.00001849,0.00038620,-0.00047706,-0.00430141,-0.00354377,-0.0
 0726678,0.05635296,0.08585054,-0.00031727,0.00008143,-0.00017466,0.000
 61077,-0.00037322,0.00009229,-0.00006849,0.00008568,0.00038191,0.00015
 200,-0.00009701,-0.00028556,-0.00057521,-0.00100840,0.00124706,-0.0102
 0122,-0.00513318,-0.01827029,-0.10685904,-0.07243148,-0.18831487,-0.00
 796504,-0.00448433,-0.00951404,0.00112818,-0.00032097,0.00020151,0.001
 22771,-0.00001098,0.00111255,0.00016957,0.00006703,-0.00030069,0.00007
 239,-0.00005125,0.00001495,-0.00000188,0.00009415,0.00009217,-0.000115
 55,-0.00014278,-0.00026373,0.00001898,0.00004906,-0.00000400,0.0003604
 5,0.00047973,-0.00012044,-0.00022660,-0.00023820,0.00028064,-0.0013026
 6,0.00352600,-0.00169759,0.00000375,0.00013467,0.00023459,0.00638293,0
 .00469444,0.01010953,0.11771966,0.07513028,0.20471292,-0.00023905,-0.0
 0011283,-0.00022141,0.00014541,0.00046606,0.00019899,0.00008822,0.0002
 1632,-0.00010426,0.00020058,-0.00022292,0.00050429,-0.00001882,-0.0001
 7975,-0.00010357,0.00002381,-0.00006624,0.00008858,-0.00390419,-0.0019
 8871,0.00076064,-0.00153631,0.01849856,0.02337137,0.00116672,0.0008952
 9,-0.00274111,-0.04275849,-0.01997748,-0.01531860,-0.00585084,-0.01428
 315,-0.02104213,-0.00063534,0.00041349,-0.00145346,0.00116656,-0.00025
 816,0.00093734,-0.00075333,-0.00296791,-0.00295637,-0.00000276,-0.0000
 4724,0.00005535,0.00003842,-0.00000598,-0.00001081,0.00004168,0.000028
 70,-0.00001110,-0.00001837,0.00009335,-0.00007616,0.00003072,0.0001000
 2,-0.00006895,-0.00073215,0.00090115,0.00035844,0.00046275,-0.00029438
 ,-0.00022300,0.05510008,-0.00089389,0.00027762,-0.00039177,0.00144328,
 -0.00129266,0.00033536,-0.00081186,-0.00012025,-0.00059240,-0.00204012
 ,-0.00224798,0.00434910,-0.00020053,0.00009152,-0.00037527,-0.00019043
 ,-0.00000839,-0.00007244,0.00007737,0.00039342,0.00019330,0.00222722,0
 .00036956,0.00009269,-0.00194510,0.00001822,0.00204539,-0.02231021,-0.
 16862519,-0.13699381,0.00412497,0.00480761,0.00790946,-0.00004272,-0.0
 0020307,0.00016466,0.00121331,0.00270181,0.00016775,-0.00199280,-0.024
 37735,-0.01837627,0.00006309,0.00030180,-0.00052884,0.00017552,-0.0000
 4548,-0.00009715,-0.00001151,0.00003257,0.00002615,0.00002791,0.000035
 23,0.00004816,0.00006924,0.00006573,-0.00001266,0.00001083,0.00006379,
 -0.00015926,-0.00014522,0.00000022,0.00001570,0.01922813,0.18490630,0.
 00043176,-0.00019518,0.00019678,-0.00068358,0.00092038,-0.00012422,0.0
 0063340,0.00015759,0.00088264,0.00163780,0.00142100,-0.00188468,0.0001
 1609,-0.00012342,0.00018221,0.00004436,0.00011313,-0.00022078,0.002255
 35,0.00171754,-0.00055539,-0.00109320,-0.01506458,-0.01431383,-0.00027
 234,0.00124023,0.00291787,-0.01654278,-0.13665218,-0.19027549,-0.00399
 729,-0.00752748,-0.01178181,-0.00005773,0.00033686,-0.00085295,-0.0013
 2204,-0.00037149,0.00060249,0.00225511,0.01452013,0.00956594,-0.000028
 16,-0.00019067,0.00033702,-0.00007150,0.00000060,0.00005538,0.00000115
 ,-0.00004938,0.00000150,0.00000593,-0.00005559,0.00005490,-0.00003425,
 -0.00012028,0.00009011,0.00045877,-0.00063403,-0.00020834,-0.00027820,
 0.00023236,0.00011524,0.01913597,0.14067813,0.20317317,-0.00043725,0.0
 0034739,-0.00054763,0.00191451,-0.00032663,0.00139762,-0.00052869,0.00
 011519,-0.00013146,0.00037824,0.00034553,0.00014603,0.00002679,-0.0000
 2007,-0.00003182,0.00005251,0.00007834,-0.00012205,-0.00041580,-0.0000
 8945,-0.00033045,0.00123472,-0.00009107,-0.00206289,0.00003956,-0.0003
 7295,0.00049777,0.00123123,-0.00495627,-0.02579619,-0.04876052,0.00431
 243,0.02810550,-0.00093194,0.00422001,0.01809015,-0.00119960,-0.003026
 04,0.00248858,-0.00188146,0.00003634,-0.00087617,0.00005024,-0.0000856
 5,0.00004159,0.00000565,-0.00000846,0.00000356,-0.00000945,-0.00002020
 ,-0.00000555,0.00001779,-0.00000688,0.00005110,0.00001539,-0.00003170,
 0.00004123,0.00007954,0.00000247,0.00008428,-0.00048495,0.00014904,0.0
 0006084,-0.00346737,0.00149627,-0.00260362,0.05458129,0.00019570,0.000
 06059,0.00011335,-0.00073278,-0.00066574,0.00139927,-0.00009248,-0.000
 45984,0.00009113,0.00027873,0.00005126,0.00002184,-0.00008262,-0.00006
 202,-0.00014106,0.00000282,0.00003040,0.00005351,-0.00020073,-0.000142
 93,0.00012689,-0.00018804,0.00125564,-0.00014802,0.00018605,-0.0002607
 1,0.00013160,-0.00225700,-0.00022469,0.00447771,0.00460220,-0.05177544
 ,-0.03754790,0.00010197,0.00365037,0.01844556,-0.00047033,-0.00471798,
 0.00458535,-0.00125214,0.00009483,0.00106015,0.00000303,0.00009229,-0.
 00003144,0.00001367,-0.00001042,0.00000526,-0.00004541,0.00003058,0.00
 001295,-0.00001128,-0.00000558,-0.00001825,-0.00002492,-0.00000327,-0.
 00001280,-0.00009708,0.00004963,-0.00001056,0.00033301,-0.00004669,-0.
 00014636,-0.00031448,0.00036166,0.00006044,-0.00219659,0.05516428,0.00
 062469,0.00010733,0.00095404,-0.00099986,-0.00092257,-0.00146650,0.000
 47660,0.00008007,0.00062387,-0.00045629,-0.00039576,-0.00034725,0.0000
 6989,0.00003147,0.00009376,-0.00000124,-0.00001244,-0.00001018,-0.0005
 4147,-0.00026294,-0.00008454,0.00151860,0.00150934,-0.00080670,-0.0002
 5248,-0.00089408,0.00062915,-0.00012683,-0.00248642,-0.00823311,0.0274
 8053,-0.03504632,-0.31037957,0.00000715,-0.00136923,-0.00554562,-0.000
 08818,0.00216794,-0.00122359,0.00088198,-0.00030889,-0.00068466,-0.000
 00992,0.00006901,0.00000613,-0.00001794,0.00002403,0.00000280,0.000047
 69,-0.00002480,0.00000472,0.00004115,-0.00001574,0.00003828,0.00002007
 ,0.00001900,0.00001078,-0.00006506,0.00007144,0.00004891,0.00005248,-0
 .00005982,0.00012897,-0.00133034,0.00093275,-0.00040989,-0.02807177,0.
 03597518,0.33133587,-0.00051352,-0.00043907,-0.00159520,-0.00202830,-0
 .00004525,0.00412206,0.00105673,-0.00005337,-0.00029349,-0.00036771,-0
 .00086065,-0.00079948,-0.00001332,-0.00016366,0.00019745,-0.00003469,-
 0.00018434,0.00003929,0.00019360,0.00016498,0.00074256,0.00123361,0.00
 228652,-0.00229479,-0.00013055,-0.00146817,0.00014620,-0.01131951,0.02
 363876,0.00173478,-0.06640852,0.08078842,0.01793635,0.00316577,-0.0243
 2597,-0.00569930,0.00162525,0.00018999,0.00124183,-0.00470268,0.000149
 36,-0.00074597,0.00018977,-0.00003553,-0.00006786,-0.00001357,0.000016
 12,0.00001348,0.00008965,-0.00002538,0.00000273,0.00006893,-0.00001673
 ,0.00001316,0.00000326,0.00004184,0.00001283,-0.00004224,0.00001775,0.
 00006417,-0.00013410,0.00005669,0.00002229,0.00148236,-0.00006433,0.00
 047593,-0.00067919,0.00288396,0.00051648,0.07584892,-0.00036752,-0.000
 62262,-0.00122808,-0.00196121,0.00096980,0.00324894,0.00055704,0.00007
 251,-0.00008096,-0.00022004,0.00018149,-0.00012041,0.00002013,-0.00008
 153,0.00017112,-0.00005714,-0.00006568,-0.00003023,0.00008402,0.000094
 47,0.00010206,-0.00001723,-0.00009203,0.00053181,-0.00001018,0.0000747
 6,-0.00022660,-0.00073353,-0.00044705,-0.00111265,0.08119436,-0.293166
 42,-0.04827733,0.00377039,-0.01669489,-0.00544995,0.00114122,0.0001251
 8,0.00130289,-0.00063244,-0.00004135,0.00047765,0.00008860,-0.00003348
 ,-0.00008013,0.00001889,-0.00001322,-0.00001647,0.00007175,-0.00001810
 ,-0.00002269,-0.00001018,0.00000874,0.00000259,0.00002276,0.00001462,-
 0.00000232,0.00002086,-0.00000671,-0.00001469,-0.00005993,0.00002372,0
 .00002011,-0.00034231,0.00132806,-0.00006923,0.00060075,-0.00175752,-0
 .00014404,-0.08340723,0.30891976,0.00042972,0.00008214,0.00083172,0.00
 045659,0.00061243,-0.00166371,0.00023200,-0.00035183,0.00064036,-0.000
 34455,-0.00056310,-0.00071629,-0.00000498,0.00004127,-0.00001747,0.000
 03489,-0.00005578,0.00000684,-0.00010468,-0.00005486,0.00016556,-0.000
 28732,0.00073923,-0.00091059,-0.00009672,-0.00017312,0.00004351,-0.007
 08683,0.01410725,0.00060116,0.01825144,-0.05125447,-0.05521137,-0.0037
 5381,0.01262473,0.00315879,0.00023535,-0.00051195,-0.00071461,-0.00208
 622,0.00146599,-0.00131135,-0.00000034,0.00005044,-0.00001041,-0.00000
 920,0.00000558,0.00001030,0.00000648,-0.00000972,0.00002275,0.00003771
 ,-0.00001301,0.00002275,0.00000346,0.00000886,0.00002153,-0.00001614,0
 .00001636,0.00005579,-0.00010012,0.00009617,0.00008407,-0.00025341,0.0
 0100826,0.00118008,0.00949143,-0.02893293,-0.00432027,-0.01486336,0.05
 093684,0.05794528,0.00159155,0.00001473,0.00104409,0.00233246,-0.00261
 756,-0.00220667,0.00029027,-0.00067544,-0.00050134,-0.00013647,-0.0002
 4405,-0.00008727,-0.00002904,-0.00002293,0.00020104,0.00000419,0.00001
 459,0.00002731,-0.00001119,0.00001973,0.00009181,0.00031661,0.00002843
 ,-0.00073864,-0.00031846,-0.00025731,0.00028609,-0.00110311,-0.0001181
 9,0.00068333,-0.00996405,0.00500456,0.00380643,-0.27069208,0.09613224,
 0.05581995,-0.01284073,0.00455933,-0.00307966,0.00147109,0.00098638,-0
 .00207178,0.00017909,-0.00013195,0.00007887,-0.00005704,0.00004925,0.0
 0003838,0.00001785,-0.00001194,-0.00000495,0.00003433,-0.00000890,0.00
 000575,-0.00002325,0.00000711,0.00000492,-0.00002678,0.00000930,0.0000
 2113,0.00000629,0.00001250,-0.00000510,-0.00009113,-0.00001540,-0.0000
 6666,-0.00113905,-0.00070585,0.00023747,0.00101185,0.00025987,-0.00039
 473,0.28975868,-0.00211412,0.00263551,0.00313978,0.02532359,-0.0103705
 8,-0.00674387,-0.00134188,-0.00322083,-0.00284969,-0.00047195,0.000350
 38,-0.00037954,0.00003985,0.00011760,0.00001358,0.00001108,-0.00013738
 ,0.00008162,0.00002909,0.00008638,0.00023446,0.00028090,0.00022513,-0.
 00118348,-0.00025440,-0.00033589,0.00028208,-0.00347758,-0.00100861,0.
 00113589,-0.01865529,0.00779191,0.00430091,0.09445670,-0.08630125,-0.0
 2518173,0.01010148,-0.00285232,0.00176262,-0.00172462,-0.00092718,0.00
 184377,0.00077414,-0.00090562,0.00031579,-0.00001716,-0.00001304,-0.00
 001747,0.00004358,-0.00001067,0.00001788,0.00001953,-0.00000058,-0.000
 01953,0.00003028,0.00004522,-0.00001722,-0.00000791,0.00002980,0.00001
 828,-0.00006947,0.00002547,0.00003424,-0.00012954,0.00004776,-0.000107
 93,-0.00090904,-0.00047894,0.00067536,0.00021600,0.00145213,-0.0003183
 0,-0.10252311,0.09365828,-0.00115790,0.00208830,0.00143144,0.01885314,
 -0.00677782,-0.00137935,-0.00089543,-0.00309705,-0.00178280,-0.0009981
 6,-0.00018800,-0.00053300,0.00013706,0.00021501,0.00024960,-0.00001092
 ,-0.00000229,-0.00006967,-0.00001319,-0.00002960,-0.00015506,0.0000102
 0,-0.00023781,0.00055413,0.00002055,0.00009116,-0.00009053,0.00109650,
 0.00090195,-0.00126615,0.00899902,-0.00403345,0.00025454,0.06452670,-0
 .02825294,-0.06403623,-0.03491813,0.01343484,0.00341004,-0.00125612,0.
 00275706,-0.00528606,0.00072685,-0.00063900,0.00025654,-0.00008944,0.0
 0006834,0.00002493,0.00005581,-0.00005153,-0.00000723,0.00004278,0.000
 02215,0.00003949,0.00002740,0.00002234,0.00003100,0.00000938,-0.000006
 20,-0.00001089,0.00001779,-0.00000775,0.00001022,0.00009131,0.00004725
 ,0.00005332,0.00019941,0.00039226,-0.00029317,-0.00059086,-0.00004415,
 0.00040061,-0.05337578,0.02316639,0.06772748,-0.00011771,-0.00071891,-
 0.00038102,-0.00039201,0.00151944,0.00054993,0.00122582,0.00103087,0.0
 0055248,0.00295261,-0.00217206,0.00035627,0.00000646,-0.00009990,0.000
 84002,-0.00021172,0.00003317,0.00033316,0.00002492,-0.00002190,0.00008
 113,0.00000041,0.00015839,-0.00005265,0.00005424,0.00001725,-0.0001479
 3,0.00721843,-0.00174746,0.00802743,-0.00095893,-0.00214808,0.00102534
 ,-0.00478269,-0.00082315,0.00327316,-0.02675279,0.00956999,-0.02671332
 ,-0.11631728,0.02157478,-0.11175675,0.00032031,0.00011986,-0.00011000,
 -0.00005164,-0.00014984,-0.00003270,0.00022455,-0.00012051,0.00000996,
 -0.00092399,0.00020503,0.00062850,0.00002595,0.00003395,-0.00013041,0.
 00000259,0.00001282,-0.00000341,-0.00000110,-0.00001308,-0.00006848,0.
 00006084,0.00050698,-0.00040028,0.00030780,0.00007059,-0.00001340,0.00
 041820,-0.00003168,0.00022335,-0.00058190,0.00036984,-0.00150799,0.138
 24866,-0.00032199,0.00031482,0.00015450,0.00139569,-0.00029956,-0.0003
 4923,0.00131367,-0.00324780,-0.00170910,-0.01340464,0.00337402,-0.0237
 4183,-0.00051043,0.00099845,0.00035974,0.00030981,0.00005492,0.0000952
 7,-0.00010660,-0.00000290,0.00022581,0.00120930,-0.00028003,0.00000357
 ,-0.00059003,-0.00041797,-0.00001537,0.01199778,-0.00357888,0.02020157
 ,0.00018813,-0.00297826,0.00214244,0.00048718,-0.00044939,0.00065070,0
 .00257254,-0.00052575,0.00323213,0.02249315,-0.05264134,0.03249525,-0.
 00134654,-0.00089039,0.00025029,-0.00022535,0.00001296,0.00030173,0.00
 009495,-0.00042933,0.00003330,0.00002199,-0.00002541,-0.00034492,-0.00
 001138,-0.00002816,-0.00005083,-0.00001325,0.00001715,0.00003138,-0.00
 003869,0.00002590,0.00002564,0.00034999,0.00111750,-0.00023696,0.00043
 725,-0.00022978,0.00028012,0.00063928,-0.00022464,0.00044352,0.0002346
 0,0.00009731,0.00016055,-0.02717640,0.06023655,-0.00065604,0.00024650,
 -0.00032021,0.00157648,-0.00048836,0.00013754,0.00118439,-0.00198334,-
 0.00140010,-0.01028374,0.00220664,-0.01544896,-0.00074802,0.00021576,0
 .00034272,-0.00032404,0.00016371,-0.00024418,0.00003045,0.00006620,-0.
 00019207,-0.00075183,0.00038070,0.00036504,0.00039692,0.00015201,-0.00
 015063,-0.00573045,0.00056761,-0.00798559,0.00081877,0.00151327,0.0000
 5518,0.00286948,-0.00068522,0.00062044,0.00723296,-0.00185711,0.012733
 50,-0.12137152,0.03574715,-0.24588008,-0.00092943,-0.00059453,0.000167
 85,-0.00003734,-0.00003951,0.00023520,0.00037799,-0.00057312,0.0000448
 4,0.00076823,0.00005377,0.00014206,0.00003902,0.00010372,0.00030141,0.
 00002580,-0.00004479,0.00001707,-0.00005332,-0.00005650,0.00012727,0.0
 0041243,-0.00041422,0.00121874,-0.00011949,0.00003688,-0.00007225,-0.0
 0033129,0.00012590,-0.00031504,0.00018602,-0.00020388,0.00046681,0.125
 41759,-0.03463925,0.25503344\\0.00000457,-0.00000425,-0.00000916,0.000
 00203,-0.00000400,-0.00000689,0.00000298,-0.00000050,-0.00000407,0.000
 00041,-0.00000030,-0.00000026,0.00000233,0.00000001,0.00000277,0.00000
 046,0.00000382,0.00000701,0.00000047,-0.00000088,0.00000705,0.00000505
 ,0.00000218,0.00000378,-0.00000318,0.00000430,0.00000338,-0.00000254,-
 0.00000323,0.00000134,-0.00000095,-0.00000091,-0.00000472,-0.00000120,
 -0.00000264,-0.00000646,-0.00000501,-0.00000106,-0.00000440,-0.0000037
 6,0.00000109,-0.00000234,0.00000618,-0.00000167,-0.00000284,0.00000493
 ,0.00000124,0.00000347,-0.00000038,0.00000157,0.00000400,-0.00000342,0
 .00000299,0.00000762,0.00000230,0.00000406,0.00000882,0.00000148,0.000
 00376,0.00000784,0.00000713,0.00000078,0.00000326,-0.00000682,0.000000
 56,-0.00000088,-0.00000265,-0.00000130,-0.00000327,-0.00000220,-0.0000
 0193,-0.00000559,-0.00000295,-0.00000401,-0.00000933,-0.00000527,0.000
 00033,-0.00000014\\\@


 GOOD SENSE ABOUT TRIVIALITIES IS BETTER THAN NONSENSE
 ABOUT THINGS THAT MATTER

                                       -- MAX BEERBOHM
 Job cpu time:       0 days  0 hours 28 minutes 39.4 seconds.
 Elapsed time:       0 days  0 hours  1 minutes 48.0 seconds.
 File lengths (MBytes):  RWF=    260 Int=      0 D2E=      0 Chk=     19 Scr=      1
 Normal termination of Gaussian 16 at Thu Jan 29 20:42:49 2026.
