          26
 Energy =    -41.87774370 a.u.  #Cluster:    4
O           2.90326862      0.98860007      1.36200034
C           2.01418735      0.75907822      0.56554115
C           0.79170071      1.54785750      0.44331609
C          -0.17785528      1.16572483     -0.40278101
C          -1.57042454      1.69833388     -0.37437512
C          -2.36927947      1.03931862      0.77811943
C          -1.77740418     -0.29665646      1.26459668
C          -1.59957611     -1.27216006      0.12487343
O          -2.50610527     -1.97650105     -0.25523421
C          -0.25843485     -1.31928606     -0.58352215
C           1.01110278     -1.51871441      0.26164941
C           2.00280542     -0.47374915     -0.33573351
O           1.46238905     -0.12284297     -1.59234210
C           0.08896044      0.00991139     -1.32608253
H           0.67554712      2.39067054      1.10901524
H          -1.55884682      2.77841954     -0.22791435
H          -2.06034219      1.48492638     -1.32507117
H          -3.39371168      0.87292007      0.44549326
H          -2.39662654      1.71079253      1.63642103
H          -2.48237795     -0.73616564      1.97300653
H          -0.83336321     -0.11182920      1.77377175
H          -0.32164503     -2.10864723     -1.33819728
H           0.85319941     -1.34051652      1.32447648
H           1.40202672     -2.52654268      0.13994354
H           3.01137476     -0.86282719     -0.47943377
H          -0.43666977      0.11651669     -2.27614858
