 Entering Gaussian System, Link 0=g16
 Initial command:
 /root/g16/l1.exe "/root/g16/scratch/gau_root_3027928/Gau-3027935.inp" -scrdir="/root/g16/scratch/gau_root_3027928/"
 Entering Link 1 = /root/g16/l1.exe PID=   3027937.
  
 Copyright (c) 1988,1990,1992,1993,1995,1998,2003,2009,2016,
            Gaussian, Inc.  All Rights Reserved.
  
 This is part of the Gaussian(R) 16 program.  It is based on
 the Gaussian(R) 09 system (copyright 2009, Gaussian, Inc.),
 the Gaussian(R) 03 system (copyright 2003, Gaussian, Inc.),
 the Gaussian(R) 98 system (copyright 1998, Gaussian, Inc.),
 the Gaussian(R) 94 system (copyright 1995, Gaussian, Inc.),
 the Gaussian 92(TM) system (copyright 1992, Gaussian, Inc.),
 the Gaussian 90(TM) system (copyright 1990, Gaussian, Inc.),
 the Gaussian 88(TM) system (copyright 1988, Gaussian, Inc.),
 the Gaussian 86(TM) system (copyright 1986, Carnegie Mellon
 University), and the Gaussian 82(TM) system (copyright 1983,
 Carnegie Mellon University). Gaussian is a federally registered
 trademark of Gaussian, Inc.
  
 This software contains proprietary and confidential information,
 including trade secrets, belonging to Gaussian, Inc.
  
 This software is provided under written license and may be
 used, copied, transmitted, or stored only in accord with that
 written license.
  
 The following legend is applicable only to US Government
 contracts under FAR:
  
                    RESTRICTED RIGHTS LEGEND
  
 Use, reproduction and disclosure by the US Government is
 subject to restrictions as set forth in subparagraphs (a)
 and (c) of the Commercial Computer Software - Restricted
 Rights clause in FAR 52.227-19.
  
 Gaussian, Inc.
 340 Quinnipiac St., Bldg. 40, Wallingford CT 06492
  
  
 ---------------------------------------------------------------
 Warning -- This program may not be used in any manner that
 competes with the business of Gaussian, Inc. or will provide
 assistance to any competitor of Gaussian, Inc.  The licensee
 of this program is prohibited from giving any competitor of
 Gaussian, Inc. access to this program.  By using this program,
 the user acknowledges that Gaussian, Inc. is engaged in the
 business of creating and licensing software in the field of
 computational chemistry and represents and warrants to the
 licensee that it is not a competitor of Gaussian, Inc. and that
 it will not use this program in any manner prohibited above.
 ---------------------------------------------------------------
  

 Cite this work as:
 Gaussian 16, Revision A.03,
 M. J. Frisch, G. W. Trucks, H. B. Schlegel, G. E. Scuseria, 
 M. A. Robb, J. R. Cheeseman, G. Scalmani, V. Barone, 
 G. A. Petersson, H. Nakatsuji, X. Li, M. Caricato, A. V. Marenich, 
 J. Bloino, B. G. Janesko, R. Gomperts, B. Mennucci, H. P. Hratchian, 
 J. V. Ortiz, A. F. Izmaylov, J. L. Sonnenberg, D. Williams-Young, 
 F. Ding, F. Lipparini, F. Egidi, J. Goings, B. Peng, A. Petrone, 
 T. Henderson, D. Ranasinghe, V. G. Zakrzewski, J. Gao, N. Rega, 
 G. Zheng, W. Liang, M. Hada, M. Ehara, K. Toyota, R. Fukuda, 
 J. Hasegawa, M. Ishida, T. Nakajima, Y. Honda, O. Kitao, H. Nakai, 
 T. Vreven, K. Throssell, J. A. Montgomery, Jr., J. E. Peralta, 
 F. Ogliaro, M. J. Bearpark, J. J. Heyd, E. N. Brothers, K. N. Kudin, 
 V. N. Staroverov, T. A. Keith, R. Kobayashi, J. Normand, 
 K. Raghavachari, A. P. Rendell, J. C. Burant, S. S. Iyengar, 
 J. Tomasi, M. Cossi, J. M. Millam, M. Klene, C. Adamo, R. Cammi, 
 J. W. Ochterski, R. L. Martin, K. Morokuma, O. Farkas, 
 J. B. Foresman, and D. J. Fox, Gaussian, Inc., Wallingford CT, 2016.
 
 ******************************************
 Gaussian 16:  ES64L-G16RevA.03 25-Dec-2016
                29-Jan-2026 
 ******************************************
 %chk=conf_000.chk
 %mem=32GB
 %nprocshared=16
 Will use up to   16 processors via shared memory.
 --------------------------------------------------------------------
 #p B3LYP/def2SVP em=GD3BJ SCRF=(PCM,Solvent=Acetone) Opt=CalcFC Freq
 --------------------------------------------------------------------
 1/10=4,18=20,19=15,26=3,38=1/1,3;
 2/9=110,12=2,17=6,18=5,40=1/2;
 3/5=43,7=101,11=2,25=1,30=1,70=2201,71=2,72=19,74=-5,124=41,140=1/1,2,3;
 4//1;
 5/5=2,38=5,53=19/2;
 8/6=4,10=90,11=11/1;
 11/6=1,8=1,9=11,15=111,16=1/1,2,10;
 10/6=1,13=1/2;
 6/7=2,8=2,9=2,10=2,28=1/1;
 7/10=1,18=20,25=1/1,2,3,16;
 1/10=4,18=20,19=15,26=3/3(2);
 2/9=110/2;
 99//99;
 2/9=110/2;
 3/5=43,7=101,11=2,25=1,30=1,70=2205,71=1,72=19,74=-5,124=41/1,2,3;
 4/5=5,16=3,69=1/1;
 5/5=2,38=5,53=19/2;
 7//1,2,3,16;
 1/18=20,19=15,26=3/3(-5);
 2/9=110/2;
 6/7=2,8=2,9=2,10=2,19=2,28=1/1;
 99/9=1/99;
 Leave Link    1 at Thu Jan 29 20:23:07 2026, MaxMem=  4294967296 cpu:               0.3 elap:               0.0
 (Enter /root/g16/l101.exe)
 ----------------
 product_conf_000
 ----------------
 Symbolic Z-matrix:
 Charge =  0 Multiplicity = 1
 O                     2.77222   0.54199   1.51441 
 C                     1.92396   0.5175    0.64354 
 C                     0.72935   1.35816   0.64183 
 C                    -0.21941   1.19101  -0.29095 
 C                    -1.53753   1.8901   -0.28314 
 C                    -2.58882   1.02872   0.43668 
 C                    -2.64052  -0.40561  -0.11129 
 C                    -1.39387  -1.14899   0.31692 
 O                    -1.27562  -1.6192    1.42221 
 C                    -0.29838  -1.24413  -0.73211 
 C                     1.06401  -1.67532  -0.17403 
 C                     1.97626  -0.47075  -0.5194 
 O                     1.39206   0.09134  -1.67636 
 C                     0.02305   0.15159  -1.35663 
 H                     0.63779   2.08732   1.43367 
 H                    -1.45159   2.84566   0.23513 
 H                    -1.86365   2.07382  -1.30856 
 H                    -3.56724   1.49485   0.31667 
 H                    -2.35771   0.98664   1.50263 
 H                    -2.74229  -0.39371  -1.19563 
 H                    -3.50137  -0.9115    0.32966 
 H                    -0.64111  -1.92745  -1.51343 
 H                     1.01448  -1.85218   0.9004 
 H                     1.43173  -2.57404  -0.66467 
 H                     3.00646  -0.75127  -0.74141 
 H                    -0.52376   0.36373  -2.27584 
 
 ITRead=  0  0  0  0  0  0  0  0  0  0  0  0  0  0  0  0  0  0  0  0
 ITRead=  0  0  0  0  0  0
 MicOpt= -1 -1 -1 -1 -1 -1 -1 -1 -1 -1 -1 -1 -1 -1 -1 -1 -1 -1 -1 -1
 MicOpt= -1 -1 -1 -1 -1 -1
 NAtoms=     26 NQM=       26 NQMF=       0 NMMI=      0 NMMIF=      0
                NMic=       0 NMicF=      0.
                    Isotopes and Nuclear Properties:
 (Nuclear quadrupole moments (NQMom) in fm**2, nuclear magnetic moments (NMagM)
  in nuclear magnetons)

  Atom         1           2           3           4           5           6           7           8           9          10
 IAtWgt=          16          12          12          12          12          12          12          12          16          12
 AtmWgt=  15.9949146  12.0000000  12.0000000  12.0000000  12.0000000  12.0000000  12.0000000  12.0000000  15.9949146  12.0000000
 NucSpn=           0           0           0           0           0           0           0           0           0           0
 AtZEff=  -0.0000000  -0.0000000  -0.0000000  -0.0000000  -0.0000000  -0.0000000  -0.0000000  -0.0000000  -0.0000000  -0.0000000
 NQMom=    0.0000000   0.0000000   0.0000000   0.0000000   0.0000000   0.0000000   0.0000000   0.0000000   0.0000000   0.0000000
 NMagM=    0.0000000   0.0000000   0.0000000   0.0000000   0.0000000   0.0000000   0.0000000   0.0000000   0.0000000   0.0000000
 AtZNuc=   8.0000000   6.0000000   6.0000000   6.0000000   6.0000000   6.0000000   6.0000000   6.0000000   8.0000000   6.0000000

  Atom        11          12          13          14          15          16          17          18          19          20
 IAtWgt=          12          12          16          12           1           1           1           1           1           1
 AtmWgt=  12.0000000  12.0000000  15.9949146  12.0000000   1.0078250   1.0078250   1.0078250   1.0078250   1.0078250   1.0078250
 NucSpn=           0           0           0           0           1           1           1           1           1           1
 AtZEff=  -0.0000000  -0.0000000  -0.0000000  -0.0000000  -0.0000000  -0.0000000  -0.0000000  -0.0000000  -0.0000000  -0.0000000
 NQMom=    0.0000000   0.0000000   0.0000000   0.0000000   0.0000000   0.0000000   0.0000000   0.0000000   0.0000000   0.0000000
 NMagM=    0.0000000   0.0000000   0.0000000   0.0000000   2.7928460   2.7928460   2.7928460   2.7928460   2.7928460   2.7928460
 AtZNuc=   6.0000000   6.0000000   8.0000000   6.0000000   1.0000000   1.0000000   1.0000000   1.0000000   1.0000000   1.0000000

  Atom        21          22          23          24          25          26
 IAtWgt=           1           1           1           1           1           1
 AtmWgt=   1.0078250   1.0078250   1.0078250   1.0078250   1.0078250   1.0078250
 NucSpn=           1           1           1           1           1           1
 AtZEff=  -0.0000000  -0.0000000  -0.0000000  -0.0000000  -0.0000000  -0.0000000
 NQMom=    0.0000000   0.0000000   0.0000000   0.0000000   0.0000000   0.0000000
 NMagM=    2.7928460   2.7928460   2.7928460   2.7928460   2.7928460   2.7928460
 AtZNuc=   1.0000000   1.0000000   1.0000000   1.0000000   1.0000000   1.0000000
 Leave Link  101 at Thu Jan 29 20:23:08 2026, MaxMem=  4294967296 cpu:               8.8 elap:               0.6
 (Enter /root/g16/l103.exe)

 GradGradGradGradGradGradGradGradGradGradGradGradGradGradGradGradGradGrad
 Berny optimization.
 Initialization pass.
                           ----------------------------
                           !    Initial Parameters    !
                           ! (Angstroms and Degrees)  !
 --------------------------                            --------------------------
 ! Name  Definition              Value          Derivative Info.                !
 --------------------------------------------------------------------------------
 ! R1    R(1,2)                  1.216          calculate D2E/DX2 analytically  !
 ! R2    R(2,3)                  1.4607         calculate D2E/DX2 analytically  !
 ! R3    R(2,12)                 1.527          calculate D2E/DX2 analytically  !
 ! R4    R(3,4)                  1.341          calculate D2E/DX2 analytically  !
 ! R5    R(3,15)                 1.0803         calculate D2E/DX2 analytically  !
 ! R6    R(4,5)                  1.4921         calculate D2E/DX2 analytically  !
 ! R7    R(4,14)                 1.5083         calculate D2E/DX2 analytically  !
 ! R8    R(5,6)                  1.538          calculate D2E/DX2 analytically  !
 ! R9    R(5,16)                 1.0904         calculate D2E/DX2 analytically  !
 ! R10   R(5,17)                 1.0916         calculate D2E/DX2 analytically  !
 ! R11   R(6,7)                  1.5363         calculate D2E/DX2 analytically  !
 ! R12   R(6,18)                 1.0904         calculate D2E/DX2 analytically  !
 ! R13   R(6,19)                 1.0915         calculate D2E/DX2 analytically  !
 ! R14   R(7,8)                  1.5133         calculate D2E/DX2 analytically  !
 ! R15   R(7,20)                 1.0892         calculate D2E/DX2 analytically  !
 ! R16   R(7,21)                 1.0915         calculate D2E/DX2 analytically  !
 ! R17   R(8,9)                  1.207          calculate D2E/DX2 analytically  !
 ! R18   R(8,10)                 1.5197         calculate D2E/DX2 analytically  !
 ! R19   R(10,11)                1.5341         calculate D2E/DX2 analytically  !
 ! R20   R(10,14)                1.5625         calculate D2E/DX2 analytically  !
 ! R21   R(10,22)                1.0931         calculate D2E/DX2 analytically  !
 ! R22   R(11,12)                1.55           calculate D2E/DX2 analytically  !
 ! R23   R(11,23)                1.09           calculate D2E/DX2 analytically  !
 ! R24   R(11,24)                1.088          calculate D2E/DX2 analytically  !
 ! R25   R(12,13)                1.4127         calculate D2E/DX2 analytically  !
 ! R26   R(12,25)                1.0905         calculate D2E/DX2 analytically  !
 ! R27   R(13,14)                1.4071         calculate D2E/DX2 analytically  !
 ! R28   R(14,26)                1.0904         calculate D2E/DX2 analytically  !
 ! A1    A(1,2,3)              124.0383         calculate D2E/DX2 analytically  !
 ! A2    A(1,2,12)             122.3155         calculate D2E/DX2 analytically  !
 ! A3    A(3,2,12)             113.5512         calculate D2E/DX2 analytically  !
 ! A4    A(2,3,4)              120.5105         calculate D2E/DX2 analytically  !
 ! A5    A(2,3,15)             117.1865         calculate D2E/DX2 analytically  !
 ! A6    A(4,3,15)             122.2782         calculate D2E/DX2 analytically  !
 ! A7    A(3,4,5)              124.2635         calculate D2E/DX2 analytically  !
 ! A8    A(3,4,14)             117.6232         calculate D2E/DX2 analytically  !
 ! A9    A(5,4,14)             117.9441         calculate D2E/DX2 analytically  !
 ! A10   A(4,5,6)              110.115          calculate D2E/DX2 analytically  !
 ! A11   A(4,5,16)             110.0868         calculate D2E/DX2 analytically  !
 ! A12   A(4,5,17)             109.7465         calculate D2E/DX2 analytically  !
 ! A13   A(6,5,16)             108.7978         calculate D2E/DX2 analytically  !
 ! A14   A(6,5,17)             109.2511         calculate D2E/DX2 analytically  !
 ! A15   A(16,5,17)            108.8156         calculate D2E/DX2 analytically  !
 ! A16   A(5,6,7)              112.2697         calculate D2E/DX2 analytically  !
 ! A17   A(5,6,18)             108.8093         calculate D2E/DX2 analytically  !
 ! A18   A(5,6,19)             109.5068         calculate D2E/DX2 analytically  !
 ! A19   A(7,6,18)             109.248          calculate D2E/DX2 analytically  !
 ! A20   A(7,6,19)             108.6303         calculate D2E/DX2 analytically  !
 ! A21   A(18,6,19)            108.2974         calculate D2E/DX2 analytically  !
 ! A22   A(6,7,8)              109.267          calculate D2E/DX2 analytically  !
 ! A23   A(6,7,20)             110.3675         calculate D2E/DX2 analytically  !
 ! A24   A(6,7,21)             108.37           calculate D2E/DX2 analytically  !
 ! A25   A(8,7,20)             111.3493         calculate D2E/DX2 analytically  !
 ! A26   A(8,7,21)             107.9217         calculate D2E/DX2 analytically  !
 ! A27   A(20,7,21)            109.4847         calculate D2E/DX2 analytically  !
 ! A28   A(7,8,9)              122.0875         calculate D2E/DX2 analytically  !
 ! A29   A(7,8,10)             115.4201         calculate D2E/DX2 analytically  !
 ! A30   A(9,8,10)             122.487          calculate D2E/DX2 analytically  !
 ! A31   A(8,10,11)            113.9944         calculate D2E/DX2 analytically  !
 ! A32   A(8,10,14)            111.6086         calculate D2E/DX2 analytically  !
 ! A33   A(8,10,22)            107.8495         calculate D2E/DX2 analytically  !
 ! A34   A(11,10,14)           102.3435         calculate D2E/DX2 analytically  !
 ! A35   A(11,10,22)           111.2701         calculate D2E/DX2 analytically  !
 ! A36   A(14,10,22)           109.7068         calculate D2E/DX2 analytically  !
 ! A37   A(10,11,12)           102.8966         calculate D2E/DX2 analytically  !
 ! A38   A(10,11,23)           111.335          calculate D2E/DX2 analytically  !
 ! A39   A(10,11,24)           111.61           calculate D2E/DX2 analytically  !
 ! A40   A(12,11,23)           111.8682         calculate D2E/DX2 analytically  !
 ! A41   A(12,11,24)           110.0334         calculate D2E/DX2 analytically  !
 ! A42   A(23,11,24)           109.017          calculate D2E/DX2 analytically  !
 ! A43   A(2,12,11)            108.2462         calculate D2E/DX2 analytically  !
 ! A44   A(2,12,13)            110.6118         calculate D2E/DX2 analytically  !
 ! A45   A(2,12,25)            110.7239         calculate D2E/DX2 analytically  !
 ! A46   A(11,12,13)           104.377          calculate D2E/DX2 analytically  !
 ! A47   A(11,12,25)           113.6685         calculate D2E/DX2 analytically  !
 ! A48   A(13,12,25)           109.0424         calculate D2E/DX2 analytically  !
 ! A49   A(12,13,14)           103.4899         calculate D2E/DX2 analytically  !
 ! A50   A(4,14,10)            107.4646         calculate D2E/DX2 analytically  !
 ! A51   A(4,14,13)            110.2703         calculate D2E/DX2 analytically  !
 ! A52   A(4,14,26)            112.392          calculate D2E/DX2 analytically  !
 ! A53   A(10,14,13)           104.6383         calculate D2E/DX2 analytically  !
 ! A54   A(10,14,26)           114.0525         calculate D2E/DX2 analytically  !
 ! A55   A(13,14,26)           107.7386         calculate D2E/DX2 analytically  !
 ! D1    D(1,2,3,4)           -174.0648         calculate D2E/DX2 analytically  !
 ! D2    D(1,2,3,15)             4.1622         calculate D2E/DX2 analytically  !
 ! D3    D(12,2,3,4)             2.4545         calculate D2E/DX2 analytically  !
 ! D4    D(12,2,3,15)         -179.3184         calculate D2E/DX2 analytically  !
 ! D5    D(1,2,12,11)           97.1047         calculate D2E/DX2 analytically  !
 ! D6    D(1,2,12,13)         -149.1092         calculate D2E/DX2 analytically  !
 ! D7    D(1,2,12,25)          -28.1121         calculate D2E/DX2 analytically  !
 ! D8    D(3,2,12,11)          -79.4825         calculate D2E/DX2 analytically  !
 ! D9    D(3,2,12,13)           34.3035         calculate D2E/DX2 analytically  !
 ! D10   D(3,2,12,25)          155.3007         calculate D2E/DX2 analytically  !
 ! D11   D(2,3,4,5)            172.7142         calculate D2E/DX2 analytically  !
 ! D12   D(2,3,4,14)            -2.4501         calculate D2E/DX2 analytically  !
 ! D13   D(15,3,4,5)            -5.4204         calculate D2E/DX2 analytically  !
 ! D14   D(15,3,4,14)          179.4153         calculate D2E/DX2 analytically  !
 ! D15   D(3,4,5,6)            -92.5306         calculate D2E/DX2 analytically  !
 ! D16   D(3,4,5,16)            27.4242         calculate D2E/DX2 analytically  !
 ! D17   D(3,4,5,17)           147.169          calculate D2E/DX2 analytically  !
 ! D18   D(14,4,5,6)            82.6193         calculate D2E/DX2 analytically  !
 ! D19   D(14,4,5,16)         -157.4258         calculate D2E/DX2 analytically  !
 ! D20   D(14,4,5,17)          -37.681          calculate D2E/DX2 analytically  !
 ! D21   D(3,4,14,10)           79.0678         calculate D2E/DX2 analytically  !
 ! D22   D(3,4,14,13)          -34.4239         calculate D2E/DX2 analytically  !
 ! D23   D(3,4,14,26)         -154.6517         calculate D2E/DX2 analytically  !
 ! D24   D(5,4,14,10)          -96.4089         calculate D2E/DX2 analytically  !
 ! D25   D(5,4,14,13)          150.0994         calculate D2E/DX2 analytically  !
 ! D26   D(5,4,14,26)           29.8716         calculate D2E/DX2 analytically  !
 ! D27   D(4,5,6,7)            -51.587          calculate D2E/DX2 analytically  !
 ! D28   D(4,5,6,18)          -172.6386         calculate D2E/DX2 analytically  !
 ! D29   D(4,5,6,19)            69.1635         calculate D2E/DX2 analytically  !
 ! D30   D(16,5,6,7)          -172.3192         calculate D2E/DX2 analytically  !
 ! D31   D(16,5,6,18)           66.6292         calculate D2E/DX2 analytically  !
 ! D32   D(16,5,6,19)          -51.5686         calculate D2E/DX2 analytically  !
 ! D33   D(17,5,6,7)            69.0118         calculate D2E/DX2 analytically  !
 ! D34   D(17,5,6,18)          -52.0398         calculate D2E/DX2 analytically  !
 ! D35   D(17,5,6,19)         -170.2377         calculate D2E/DX2 analytically  !
 ! D36   D(5,6,7,8)             71.2644         calculate D2E/DX2 analytically  !
 ! D37   D(5,6,7,20)           -51.497          calculate D2E/DX2 analytically  !
 ! D38   D(5,6,7,21)          -171.3772         calculate D2E/DX2 analytically  !
 ! D39   D(18,6,7,8)          -167.9365         calculate D2E/DX2 analytically  !
 ! D40   D(18,6,7,20)           69.302          calculate D2E/DX2 analytically  !
 ! D41   D(18,6,7,21)          -50.5782         calculate D2E/DX2 analytically  !
 ! D42   D(19,6,7,8)           -49.9903         calculate D2E/DX2 analytically  !
 ! D43   D(19,6,7,20)         -172.7517         calculate D2E/DX2 analytically  !
 ! D44   D(19,6,7,21)           67.3681         calculate D2E/DX2 analytically  !
 ! D45   D(6,7,8,9)             79.81           calculate D2E/DX2 analytically  !
 ! D46   D(6,7,8,10)           -99.3665         calculate D2E/DX2 analytically  !
 ! D47   D(20,7,8,9)          -158.0165         calculate D2E/DX2 analytically  !
 ! D48   D(20,7,8,10)           22.807          calculate D2E/DX2 analytically  !
 ! D49   D(21,7,8,9)           -37.8306         calculate D2E/DX2 analytically  !
 ! D50   D(21,7,8,10)          142.993          calculate D2E/DX2 analytically  !
 ! D51   D(7,8,10,11)          165.2734         calculate D2E/DX2 analytically  !
 ! D52   D(7,8,10,14)           49.9333         calculate D2E/DX2 analytically  !
 ! D53   D(7,8,10,22)          -70.6367         calculate D2E/DX2 analytically  !
 ! D54   D(9,8,10,11)          -13.8995         calculate D2E/DX2 analytically  !
 ! D55   D(9,8,10,14)         -129.2396         calculate D2E/DX2 analytically  !
 ! D56   D(9,8,10,22)          110.1904         calculate D2E/DX2 analytically  !
 ! D57   D(8,10,11,12)        -119.5088         calculate D2E/DX2 analytically  !
 ! D58   D(8,10,11,23)           0.4685         calculate D2E/DX2 analytically  !
 ! D59   D(8,10,11,24)         122.5411         calculate D2E/DX2 analytically  !
 ! D60   D(14,10,11,12)          1.1578         calculate D2E/DX2 analytically  !
 ! D61   D(14,10,11,23)        121.1351         calculate D2E/DX2 analytically  !
 ! D62   D(14,10,11,24)       -116.7924         calculate D2E/DX2 analytically  !
 ! D63   D(22,10,11,12)        118.2618         calculate D2E/DX2 analytically  !
 ! D64   D(22,10,11,23)       -121.7609         calculate D2E/DX2 analytically  !
 ! D65   D(22,10,11,24)          0.3117         calculate D2E/DX2 analytically  !
 ! D66   D(8,10,14,4)           31.3655         calculate D2E/DX2 analytically  !
 ! D67   D(8,10,14,13)         148.5949         calculate D2E/DX2 analytically  !
 ! D68   D(8,10,14,26)         -93.9266         calculate D2E/DX2 analytically  !
 ! D69   D(11,10,14,4)         -90.9389         calculate D2E/DX2 analytically  !
 ! D70   D(11,10,14,13)         26.2905         calculate D2E/DX2 analytically  !
 ! D71   D(11,10,14,26)        143.7691         calculate D2E/DX2 analytically  !
 ! D72   D(22,10,14,4)         150.8426         calculate D2E/DX2 analytically  !
 ! D73   D(22,10,14,13)        -91.928          calculate D2E/DX2 analytically  !
 ! D74   D(22,10,14,26)         25.5506         calculate D2E/DX2 analytically  !
 ! D75   D(10,11,12,2)          89.6809         calculate D2E/DX2 analytically  !
 ! D76   D(10,11,12,13)        -28.1693         calculate D2E/DX2 analytically  !
 ! D77   D(10,11,12,25)       -146.8614         calculate D2E/DX2 analytically  !
 ! D78   D(23,11,12,2)         -29.9277         calculate D2E/DX2 analytically  !
 ! D79   D(23,11,12,13)       -147.7778         calculate D2E/DX2 analytically  !
 ! D80   D(23,11,12,25)         93.53           calculate D2E/DX2 analytically  !
 ! D81   D(24,11,12,2)        -151.2647         calculate D2E/DX2 analytically  !
 ! D82   D(24,11,12,13)         90.8851         calculate D2E/DX2 analytically  !
 ! D83   D(24,11,12,25)        -27.807          calculate D2E/DX2 analytically  !
 ! D84   D(2,12,13,14)         -69.671          calculate D2E/DX2 analytically  !
 ! D85   D(11,12,13,14)         46.5437         calculate D2E/DX2 analytically  !
 ! D86   D(25,12,13,14)        168.3391         calculate D2E/DX2 analytically  !
 ! D87   D(12,13,14,4)          69.5447         calculate D2E/DX2 analytically  !
 ! D88   D(12,13,14,10)        -45.7408         calculate D2E/DX2 analytically  !
 ! D89   D(12,13,14,26)       -167.4647         calculate D2E/DX2 analytically  !
 --------------------------------------------------------------------------------
 Trust Radius=3.00D-01 FncErr=1.00D-07 GrdErr=1.00D-06 EigMax=2.50D+02 EigMin=1.00D-04
 Number of steps in this run=    156 maximum allowed number of steps=    156.
 GradGradGradGradGradGradGradGradGradGradGradGradGradGradGradGradGradGrad

 Leave Link  103 at Thu Jan 29 20:23:08 2026, MaxMem=  4294967296 cpu:               0.4 elap:               0.0
 (Enter /root/g16/l202.exe)
                          Input orientation:                          
 ---------------------------------------------------------------------
 Center     Atomic      Atomic             Coordinates (Angstroms)
 Number     Number       Type             X           Y           Z
 ---------------------------------------------------------------------
      1          8           0        2.772219    0.541993    1.514415
      2          6           0        1.923957    0.517498    0.643536
      3          6           0        0.729354    1.358155    0.641825
      4          6           0       -0.219406    1.191007   -0.290954
      5          6           0       -1.537533    1.890101   -0.283138
      6          6           0       -2.588824    1.028717    0.436677
      7          6           0       -2.640521   -0.405608   -0.111293
      8          6           0       -1.393872   -1.148988    0.316920
      9          8           0       -1.275620   -1.619204    1.422213
     10          6           0       -0.298385   -1.244133   -0.732108
     11          6           0        1.064012   -1.675318   -0.174034
     12          6           0        1.976261   -0.470751   -0.519397
     13          8           0        1.392058    0.091339   -1.676361
     14          6           0        0.023051    0.151589   -1.356629
     15          1           0        0.637793    2.087318    1.433671
     16          1           0       -1.451588    2.845660    0.235127
     17          1           0       -1.863646    2.073822   -1.308556
     18          1           0       -3.567240    1.494848    0.316667
     19          1           0       -2.357710    0.986643    1.502625
     20          1           0       -2.742294   -0.393705   -1.195625
     21          1           0       -3.501375   -0.911495    0.329657
     22          1           0       -0.641114   -1.927455   -1.513435
     23          1           0        1.014476   -1.852177    0.900401
     24          1           0        1.431731   -2.574043   -0.664666
     25          1           0        3.006461   -0.751266   -0.741407
     26          1           0       -0.523763    0.363734   -2.275839
 ---------------------------------------------------------------------
                    Distance matrix (angstroms):
                    1          2          3          4          5
     1  O    0.000000
     2  C    1.215968   0.000000
     3  C    2.366607   1.460748   0.000000
     4  C    3.553926   2.433288   1.340955   0.000000
     5  C    4.860303   3.837275   2.505454   1.492063   0.000000
     6  C    5.489918   4.546354   3.340797   2.483934   1.537963
     7  C    5.730500   4.717665   3.877384   2.905728   2.552722
     8  C    4.652926   3.727177   3.301427   2.687835   3.101092
     9  O    4.589583   3.925447   3.673363   3.456561   3.910504
    10  C    4.203061   3.151912   3.117025   2.476037   3.400071
    11  C    3.268837   2.493265   3.159047   3.142713   4.414991
    12  C    2.407403   1.527018   2.499622   2.763074   4.239833
    13  O    3.505565   2.417943   2.723598   2.392789   3.709328
    14  C    3.994150   2.783522   2.438952   1.508257   2.571036
    15  H    2.636346   2.177812   1.080315   2.124263   2.778196
    16  H    4.978353   4.120854   2.671064   2.129063   1.090449
    17  H    5.639761   4.536380   3.322622   2.125653   1.091598
    18  H    6.521600   5.587066   4.311047   3.416067   2.153068
    19  H    5.149176   4.392130   3.226292   2.798398   2.162840
    20  H    6.215279   5.097716   4.300881   3.113632   2.738585
    21  H    6.547844   5.619144   4.811219   3.946770   3.475793
    22  H    5.188148   4.148483   4.161557   3.375959   4.109857
    23  H    3.032940   2.551176   3.233324   3.493244   4.681682
    24  H    4.031747   3.392832   4.202670   4.128137   5.375004
    25  H    2.610771   2.167867   3.398266   3.792302   5.275861
    26  H    5.026062   3.812838   3.327453   2.171816   2.707098
                    6          7          8          9         10
     6  C    0.000000
     7  C    1.536304   0.000000
     8  C    2.486896   1.513313   0.000000
     9  O    3.115649   2.384829   1.206962   0.000000
    10  C    3.431912   2.564008   1.519738   2.395154   0.000000
    11  C    4.585628   3.916589   2.561104   2.832848   1.534110
    12  C    4.899234   4.635243   3.537970   3.957717   2.411925
    13  O    4.603372   4.354088   3.643211   4.432112   2.352168
    14  C    3.287430   2.992649   2.549498   3.541781   1.562494
    15  H    3.539166   4.398743   3.981014   4.171282   4.082352
    16  H    2.152954   3.479125   3.995902   4.623326   4.357961
    17  H    2.159623   2.860864   3.639968   4.630477   3.713645
    18  H    1.090402   2.157241   3.422484   4.021327   4.391737
    19  H    1.091526   2.150134   2.625985   2.822733   3.769776
    20  H    2.170541   1.089162   2.162519   3.241304   2.628833
    21  H    2.146771   1.091526   2.120880   2.578471   3.390743
    22  H    4.041715   2.877438   2.126700   3.019212   1.093098
    23  H    4.636632   4.058952   2.575861   2.360318   2.181377
    24  H    5.509783   4.646674   3.313356   3.549160   2.183234
    25  H    5.988610   5.692534   4.543256   4.875530   3.341409
    26  H    3.473388   3.123750   3.125351   4.262971   2.240344
                   11         12         13         14         15
    11  C    0.000000
    12  C    1.549986   0.000000
    13  O    2.342152   1.412729   0.000000
    14  C    2.412410   2.214339   1.407138   0.000000
    15  H    4.113855   3.485640   3.771623   3.451193   0.000000
    16  H    5.189884   4.828875   4.396179   3.459229   2.525292
    17  H    4.890232   4.673597   3.829507   2.693866   3.711764
    18  H    5.633758   5.940790   5.525995   4.182637   4.391016
    19  H    4.648161   4.999587   4.996827   3.813223   3.192065
    20  H    4.144170   4.767387   4.190374   2.823189   4.949107
    21  H    4.656167   5.560544   5.382886   4.049109   5.229192
    22  H    2.182893   3.156066   2.869819   2.188178   5.141929
    23  H    1.090019   2.202089   3.249542   3.176820   3.993230
    24  H    1.087954   2.177488   2.851204   3.145197   5.173166
    25  H    2.224611   1.090546   2.047052   3.177166   4.289419
    26  H    3.331119   3.167267   2.025819   1.090394   4.252108
                   16         17         18         19         20
    16  H    0.000000
    17  H    1.774397   0.000000
    18  H    2.511439   2.424622   0.000000
    19  H    2.425604   3.054308   1.768540   0.000000
    20  H    3.769146   2.621730   2.556207   3.055130   0.000000
    21  H    4.280979   3.778627   2.407280   2.507340   1.780673
    22  H    5.147520   4.188887   4.860416   4.531587   2.620753
    23  H    5.347310   5.345703   5.703984   4.448955   4.542442
    24  H    6.204541   5.733825   6.519862   5.633427   4.739016
    25  H    5.810826   5.658686   7.026955   6.068801   5.777746
    26  H    3.650447   2.378092   4.154907   4.245959   2.581173
                   21         22         23         24         25
    21  H    0.000000
    22  H    3.551092   0.000000
    23  H    4.647960   2.928010   0.000000
    24  H    5.299838   2.331345   1.773310   0.000000
    25  H    6.597332   3.909508   2.806340   2.410016   0.000000
    26  H    4.157042   2.417557   4.167126   3.879481   4.007517
                   26
    26  H    0.000000
 Stoichiometry    C11H12O3
 Framework group  C1[X(C11H12O3)]
 Deg. of freedom    72
 Full point group                 C1      NOp   1
 Largest Abelian subgroup         C1      NOp   1
 Largest concise Abelian subgroup C1      NOp   1
                         Standard orientation:                         
 ---------------------------------------------------------------------
 Center     Atomic      Atomic             Coordinates (Angstroms)
 Number     Number       Type             X           Y           Z
 ---------------------------------------------------------------------
      1          8           0        2.793127   -0.767526   -1.484769
      2          6           0        1.947281   -0.647339   -0.619509
      3          6           0        0.712472   -1.426131   -0.569379
      4          6           0       -0.226667   -1.154941    0.348573
      5          6           0       -1.577832   -1.787090    0.380105
      6          6           0       -2.585258   -0.920837   -0.394510
      7          6           0       -2.565687    0.545391    0.063774
      8          6           0       -1.283796    1.198295   -0.405893
      9          8           0       -1.142578    1.592917   -1.537745
     10          6           0       -0.184749    1.303716    0.638419
     11          6           0        1.197247    1.631653    0.058734
     12          6           0        2.048722    0.407048    0.480384
     13          8           0        1.437580   -0.052909    1.668134
     14          6           0        0.067212   -0.064964    1.348785
     15          1           0        0.584733   -2.197382   -1.314990
     16          1           0       -1.539457   -2.775914   -0.077969
     17          1           0       -1.912466   -1.890762    1.413960
     18          1           0       -3.585557   -1.329671   -0.248790
     19          1           0       -2.352534   -0.956169   -1.460352
     20          1           0       -2.667728    0.605534    1.146476
     21          1           0       -3.400483    1.065062   -0.410027
     22          1           0       -0.493040    2.050113    1.375108
     23          1           0        1.156345    1.744049   -1.024703
     24          1           0        1.609157    2.539664    0.494042
     25          1           0        3.091602    0.649410    0.687633
     26          1           0       -0.489280   -0.192609    2.277753
 ---------------------------------------------------------------------
 Rotational constants (GHZ):           1.1694040           0.6786447           0.6168151
 Leave Link  202 at Thu Jan 29 20:23:08 2026, MaxMem=  4294967296 cpu:               0.4 elap:               0.0
 (Enter /root/g16/l301.exe)
 Standard basis: def2SVP (5D, 7F)
 Ernie: Thresh=  0.10000D-02 Tol=  0.10000D-05 Strict=F.
 There are   270 symmetry adapted cartesian basis functions of A   symmetry.
 There are   256 symmetry adapted basis functions of A   symmetry.
   256 basis functions,   434 primitive gaussians,   270 cartesian basis functions
    51 alpha electrons       51 beta electrons
       nuclear repulsion energy       952.8198425247 Hartrees.
 IExCor=  402 DFT=T Ex+Corr=B3LYP ExCW=0 ScaHFX=  0.200000
 ScaDFX=  0.800000  0.720000  1.000000  0.810000 ScalE2=  1.000000  1.000000
 IRadAn=      5 IRanWt=     -1 IRanGd=            0 ICorTp=0 IEmpDi=141
 NAtoms=   26 NActive=   26 NUniq=   26 SFac= 1.00D+00 NAtFMM=   60 NAOKFM=F Big=F
 Integral buffers will be    131072 words long.
 Raffenetti 2 integral format.
 Two-electron integral symmetry is turned on.
 R6Disp:  Grimme-D3(BJ) Dispersion energy=       -0.0579413406 Hartrees.
 Nuclear repulsion after empirical dispersion term =      952.7619011841 Hartrees.
 Force inversion solution in PCM.
 ------------------------------------------------------------------------------
 Polarizable Continuum Model (PCM)
 =================================
 Model                : PCM.
 Atomic radii         : UFF (Universal Force Field).
 Polarization charges : Total charges.
 Charge compensation  : None.
 Solution method      : Matrix inversion.
 Cavity type          : Scaled VdW (van der Waals Surface) (Alpha=1.100).
 Cavity algorithm     : GePol (No added spheres)
                        Default sphere list used, NSphG=   26.
                        Lebedev-Laikov grids with approx.  5.0 points / Ang**2.
                        Smoothing algorithm: York/Karplus (Gamma=1.0000).
                        Polarization charges: spherical gaussians, with
                                              point-specific exponents (IZeta= 3).
                        Self-potential: point-specific (ISelfS= 7).
                        Self-field    : sphere-specific E.n sum rule (ISelfD= 2).
 1st derivatives      : Analytical E(r).r(x)/FMM algorithm (CHGder, D1EAlg=3).
                        Cavity 1st derivative terms included.
 2nd derivatives      : Analytical E(r).r(xy)/FMM algorithm (CHGder, D2EAlg=3).
                        Cavity 2nd derivative terms included.
 Solvent              : Acetone, Eps=  20.493000 Eps(inf)=   1.846337
 ------------------------------------------------------------------------------
 GePol: Number of generator spheres                  =      26
 GePol: Total number of spheres                      =      26
 GePol: Number of exposed spheres                    =      26 (100.00%)
 GePol: Number of points                             =    1791
 GePol: Average weight of points                     =       0.13
 GePol: Minimum weight of points                     =   0.65D-10
 GePol: Maximum weight of points                     =    0.20577
 GePol: Number of points with low weight             =     126
 GePol: Fraction of low-weight points (<1% of avg)   =       7.04%
 GePol: Cavity surface area                          =    235.760 Ang**2
 GePol: Cavity volume                                =    256.861 Ang**3
 Leave Link  301 at Thu Jan 29 20:23:08 2026, MaxMem=  4294967296 cpu:               0.6 elap:               0.0
 (Enter /root/g16/l302.exe)
 NPDir=0 NMtPBC=     1 NCelOv=     1 NCel=       1 NClECP=     1 NCelD=      1
         NCelK=      1 NCelE2=     1 NClLst=     1 CellRange=     0.0.
 One-electron integrals computed using PRISM.
 One-electron integral symmetry used in STVInt
   1 Symmetry operations used in ECPInt.
 ECPInt:  NShTT=    7260 NPrTT=   26324 LenC2=    7150 LenP2D=   19951.
 LDataN:  DoStor=T MaxTD1= 4 Len=   56
 NBasis=   256 RedAO= T EigKep=  3.31D-04  NBF=   256
 NBsUse=   256 1.00D-06 EigRej= -1.00D+00 NBFU=   256
 Precomputing XC quadrature grid using
 IXCGrd= 4 IRadAn=           5 IRanWt=          -1 IRanGd=           0 AccXCQ= 0.00D+00.
 Generated NRdTot=       0 NPtTot=           0 NUsed=           0 NTot=          32
 NSgBfM=   270   270   270   270   270 MxSgAt=    26 MxSgA2=    26.
 Leave Link  302 at Thu Jan 29 20:23:08 2026, MaxMem=  4294967296 cpu:               2.0 elap:               0.1
 (Enter /root/g16/l303.exe)
 DipDrv:  MaxL=1.
 Leave Link  303 at Thu Jan 29 20:23:08 2026, MaxMem=  4294967296 cpu:               0.4 elap:               0.0
 (Enter /root/g16/l401.exe)
 ExpMin= 1.22D-01 ExpMax= 2.27D+03 ExpMxC= 3.41D+02 IAcc=3 IRadAn=         5 AccDes= 0.00D+00
 Harris functional with IExCor=  402 and IRadAn=       5 diagonalized for initial guess.
 HarFok:  IExCor=  402 AccDes= 0.00D+00 IRadAn=         5 IDoV= 1 UseB2=F ITyADJ=14
 ICtDFT=  3500011 ScaDFX=  1.000000  1.000000  1.000000  1.000000
 FoFCou: FMM=F IPFlag=           0 FMFlag=      100000 FMFlg1=           0
         NFxFlg=           0 DoJE=T BraDBF=F KetDBF=T FulRan=T
         wScrn=  0.000000 ICntrl=       500 IOpCl=  0 I1Cent=   200000004 NGrid=           0
         NMat0=    1 NMatS0=      1 NMatT0=    0 NMatD0=    1 NMtDS0=    0 NMtDT0=    0
 Petite list used in FoFCou.
 Harris En= -651.606199494057    
 JPrj=0 DoOrth=F DoCkMO=F.
 Leave Link  401 at Thu Jan 29 20:23:08 2026, MaxMem=  4294967296 cpu:               8.2 elap:               0.6
 (Enter /root/g16/l502.exe)
 Integral symmetry usage will be decided dynamically.
 Closed shell SCF:
 Using DIIS extrapolation, IDIIS=  1040.
 NGot=  4294967296 LenX=  4294814202 LenY=  4294740861
 Requested convergence on RMS density matrix=1.00D-08 within 128 cycles.
 Requested convergence on MAX density matrix=1.00D-06.
 Requested convergence on             energy=1.00D-06.
 No special actions if energy rises.
 Fock matrices will be formed incrementally for  20 cycles.

 Cycle   1  Pass 1  IDiag  1:
 FoFJK:  IHMeth= 1 ICntrl=       0 DoSepK=F KAlg= 0 I1Cent=           0 FoldK=F
 IRaf= 960000000 NMat=       1 IRICut=       1 DoRegI=T DoRafI=F ISym2E= 0 IDoP0=0 IntGTp=1.
 FoFCou: FMM=F IPFlag=           0 FMFlag=      100000 FMFlg1=           0
         NFxFlg=           0 DoJE=F BraDBF=F KetDBF=F FulRan=T
         wScrn=  0.000000 ICntrl=         0 IOpCl=  0 I1Cent=           0 NGrid=           0
         NMat0=    1 NMatS0=      1 NMatT0=    0 NMatD0=    1 NMtDS0=    0 NMtDT0=    0
 Symmetry not used in FoFCou.
 Inv3:  Mode=1 IEnd=     9623043.
 Iteration    1 A*A^-1 deviation from unit magnitude is 3.11D-15 for   1492.
 Iteration    1 A*A^-1 deviation from orthogonality  is 1.57D-15 for   1691    949.
 Iteration    1 A^-1*A deviation from unit magnitude is 3.33D-15 for   1150.
 Iteration    1 A^-1*A deviation from orthogonality  is 2.22D-15 for   1573    250.
 E= -651.341018845895    
 DIIS: error= 2.02D-02 at cycle   1 NSaved=   1.
 NSaved= 1 IEnMin= 1 EnMin= -651.341018845895     IErMin= 1 ErrMin= 2.02D-02
 ErrMax= 2.02D-02  0.00D+00 EMaxC= 1.00D-01 BMatC= 3.04D-01 BMatP= 3.04D-01
 IDIUse=3 WtCom= 7.98D-01 WtEn= 2.02D-01
 Coeff-Com:  0.100D+01
 Coeff-En:   0.100D+01
 Coeff:      0.100D+01
 Gap=     0.147 Goal=   None    Shift=    0.000
 GapD=    0.147 DampG=1.000 DampE=0.500 DampFc=0.5000 IDamp=-1.
 Damping current iteration by 5.00D-01
 RMSDP=7.10D-03 MaxDP=3.40D-01              OVMax= 1.75D-01

 Cycle   2  Pass 1  IDiag  1:
 RMSU=  3.54D-03    CP:  9.88D-01
 E= -651.448471017480     Delta-E=       -0.107452171585 Rises=F Damp=T
 DIIS: error= 6.83D-03 at cycle   2 NSaved=   2.
 NSaved= 2 IEnMin= 2 EnMin= -651.448471017480     IErMin= 2 ErrMin= 6.83D-03
 ErrMax= 6.83D-03  0.00D+00 EMaxC= 1.00D-01 BMatC= 3.29D-02 BMatP= 3.04D-01
 IDIUse=3 WtCom= 9.32D-01 WtEn= 6.83D-02
 Coeff-Com:  0.159D+00 0.841D+00
 Coeff-En:   0.221D+00 0.779D+00
 Coeff:      0.163D+00 0.837D+00
 Gap=     0.193 Goal=   None    Shift=    0.000
 RMSDP=2.14D-03 MaxDP=1.16D-01 DE=-1.07D-01 OVMax= 1.51D-01

 Cycle   3  Pass 1  IDiag  1:
 RMSU=  2.04D-03    CP:  9.63D-01  8.99D-01
 E= -651.595713855406     Delta-E=       -0.147242837926 Rises=F Damp=F
 DIIS: error= 8.49D-03 at cycle   3 NSaved=   3.
 NSaved= 3 IEnMin= 3 EnMin= -651.595713855406     IErMin= 2 ErrMin= 6.83D-03
 ErrMax= 8.49D-03  0.00D+00 EMaxC= 1.00D-01 BMatC= 3.50D-02 BMatP= 3.29D-02
 IDIUse=3 WtCom= 9.15D-01 WtEn= 8.49D-02
 Coeff-Com:  0.259D-01 0.507D+00 0.467D+00
 Coeff-En:   0.000D+00 0.000D+00 0.100D+01
 Coeff:      0.237D-01 0.464D+00 0.512D+00
 Gap=     0.175 Goal=   None    Shift=    0.000
 RMSDP=1.20D-03 MaxDP=4.76D-02 DE=-1.47D-01 OVMax= 5.93D-02

 Cycle   4  Pass 1  IDiag  1:
 RMSU=  8.91D-04    CP:  9.72D-01  1.02D+00  6.82D-01
 E= -651.620975334551     Delta-E=       -0.025261479145 Rises=F Damp=F
 DIIS: error= 3.36D-03 at cycle   4 NSaved=   4.
 NSaved= 4 IEnMin= 4 EnMin= -651.620975334551     IErMin= 4 ErrMin= 3.36D-03
 ErrMax= 3.36D-03  0.00D+00 EMaxC= 1.00D-01 BMatC= 6.17D-03 BMatP= 3.29D-02
 IDIUse=3 WtCom= 9.66D-01 WtEn= 3.36D-02
 Coeff-Com:  0.208D-02 0.131D+00 0.314D+00 0.553D+00
 Coeff-En:   0.000D+00 0.000D+00 0.176D+00 0.824D+00
 Coeff:      0.201D-02 0.126D+00 0.310D+00 0.562D+00
 Gap=     0.177 Goal=   None    Shift=    0.000
 RMSDP=5.26D-04 MaxDP=2.24D-02 DE=-2.53D-02 OVMax= 2.26D-02

 Cycle   5  Pass 1  IDiag  1:
 RMSU=  2.21D-04    CP:  9.69D-01  9.54D-01  7.51D-01  5.64D-01
 E= -651.626147733357     Delta-E=       -0.005172398806 Rises=F Damp=F
 DIIS: error= 4.31D-04 at cycle   5 NSaved=   5.
 NSaved= 5 IEnMin= 5 EnMin= -651.626147733357     IErMin= 5 ErrMin= 4.31D-04
 ErrMax= 4.31D-04  0.00D+00 EMaxC= 1.00D-01 BMatC= 1.62D-04 BMatP= 6.17D-03
 IDIUse=3 WtCom= 9.96D-01 WtEn= 4.31D-03
 Coeff-Com: -0.560D-03 0.206D-01 0.103D+00 0.248D+00 0.630D+00
 Coeff-En:   0.000D+00 0.000D+00 0.000D+00 0.000D+00 0.100D+01
 Coeff:     -0.557D-03 0.205D-01 0.102D+00 0.247D+00 0.631D+00
 Gap=     0.175 Goal=   None    Shift=    0.000
 RMSDP=9.39D-05 MaxDP=3.16D-03 DE=-5.17D-03 OVMax= 9.28D-03

 Cycle   6  Pass 1  IDiag  1:
 RMSU=  5.81D-05    CP:  9.69D-01  9.62D-01  7.52D-01  6.08D-01  7.48D-01
 E= -651.626266512868     Delta-E=       -0.000118779510 Rises=F Damp=F
 DIIS: error= 2.62D-04 at cycle   6 NSaved=   6.
 NSaved= 6 IEnMin= 6 EnMin= -651.626266512868     IErMin= 6 ErrMin= 2.62D-04
 ErrMax= 2.62D-04  0.00D+00 EMaxC= 1.00D-01 BMatC= 4.47D-05 BMatP= 1.62D-04
 IDIUse=3 WtCom= 9.97D-01 WtEn= 2.62D-03
 Coeff-Com: -0.412D-03-0.217D-03 0.333D-01 0.979D-01 0.399D+00 0.471D+00
 Coeff-En:   0.000D+00 0.000D+00 0.000D+00 0.000D+00 0.222D+00 0.778D+00
 Coeff:     -0.411D-03-0.217D-03 0.332D-01 0.977D-01 0.398D+00 0.472D+00
 Gap=     0.176 Goal=   None    Shift=    0.000
 RMSDP=3.20D-05 MaxDP=1.33D-03 DE=-1.19D-04 OVMax= 3.80D-03

 Cycle   7  Pass 1  IDiag  1:
 RMSU=  1.44D-05    CP:  9.69D-01  9.62D-01  7.55D-01  6.07D-01  7.72D-01
                    CP:  5.25D-01
 E= -651.626311648613     Delta-E=       -0.000045135745 Rises=F Damp=F
 DIIS: error= 4.51D-05 at cycle   7 NSaved=   7.
 NSaved= 7 IEnMin= 7 EnMin= -651.626311648613     IErMin= 7 ErrMin= 4.51D-05
 ErrMax= 4.51D-05  0.00D+00 EMaxC= 1.00D-01 BMatC= 1.36D-06 BMatP= 4.47D-05
 IDIUse=1 WtCom= 1.00D+00 WtEn= 0.00D+00
 Coeff-Com: -0.132D-03-0.131D-02 0.108D-01 0.336D-01 0.163D+00 0.234D+00
 Coeff-Com:  0.561D+00
 Coeff:     -0.132D-03-0.131D-02 0.108D-01 0.336D-01 0.163D+00 0.234D+00
 Coeff:      0.561D+00
 Gap=     0.176 Goal=   None    Shift=    0.000
 RMSDP=6.79D-06 MaxDP=2.22D-04 DE=-4.51D-05 OVMax= 3.74D-04

 Cycle   8  Pass 1  IDiag  1:
 RMSU=  4.29D-06    CP:  9.69D-01  9.62D-01  7.55D-01  6.09D-01  7.71D-01
                    CP:  5.27D-01  6.77D-01
 E= -651.626312855399     Delta-E=       -0.000001206786 Rises=F Damp=F
 DIIS: error= 9.77D-06 at cycle   8 NSaved=   8.
 NSaved= 8 IEnMin= 8 EnMin= -651.626312855399     IErMin= 8 ErrMin= 9.77D-06
 ErrMax= 9.77D-06  0.00D+00 EMaxC= 1.00D-01 BMatC= 1.08D-07 BMatP= 1.36D-06
 IDIUse=1 WtCom= 1.00D+00 WtEn= 0.00D+00
 Coeff-Com:  0.159D-04-0.673D-03 0.176D-02 0.559D-02 0.368D-01 0.606D-01
 Coeff-Com:  0.256D+00 0.639D+00
 Coeff:      0.159D-04-0.673D-03 0.176D-02 0.559D-02 0.368D-01 0.606D-01
 Coeff:      0.256D+00 0.639D+00
 Gap=     0.176 Goal=   None    Shift=    0.000
 RMSDP=2.16D-06 MaxDP=1.26D-04 DE=-1.21D-06 OVMax= 5.75D-05

 Cycle   9  Pass 1  IDiag  1:
 RMSU=  1.37D-06    CP:  9.69D-01  9.61D-01  7.55D-01  6.08D-01  7.75D-01
                    CP:  5.34D-01  7.08D-01  7.53D-01
 E= -651.626312937861     Delta-E=       -0.000000082461 Rises=F Damp=F
 DIIS: error= 5.83D-06 at cycle   9 NSaved=   9.
 NSaved= 9 IEnMin= 9 EnMin= -651.626312937861     IErMin= 9 ErrMin= 5.83D-06
 ErrMax= 5.83D-06  0.00D+00 EMaxC= 1.00D-01 BMatC= 1.76D-08 BMatP= 1.08D-07
 IDIUse=1 WtCom= 1.00D+00 WtEn= 0.00D+00
 Coeff-Com:  0.234D-04-0.307D-03 0.307D-03 0.872D-03 0.101D-01 0.175D-01
 Coeff-Com:  0.105D+00 0.365D+00 0.502D+00
 Coeff:      0.234D-04-0.307D-03 0.307D-03 0.872D-03 0.101D-01 0.175D-01
 Coeff:      0.105D+00 0.365D+00 0.502D+00
 Gap=     0.176 Goal=   None    Shift=    0.000
 RMSDP=7.56D-07 MaxDP=3.71D-05 DE=-8.25D-08 OVMax= 3.27D-05

 Cycle  10  Pass 1  IDiag  1:
 RMSU=  4.84D-07    CP:  9.69D-01  9.61D-01  7.55D-01  6.08D-01  7.75D-01
                    CP:  5.34D-01  7.12D-01  7.94D-01  6.40D-01
 E= -651.626312949760     Delta-E=       -0.000000011899 Rises=F Damp=F
 DIIS: error= 3.07D-06 at cycle  10 NSaved=  10.
 NSaved=10 IEnMin=10 EnMin= -651.626312949760     IErMin=10 ErrMin= 3.07D-06
 ErrMax= 3.07D-06  0.00D+00 EMaxC= 1.00D-01 BMatC= 2.43D-09 BMatP= 1.76D-08
 IDIUse=1 WtCom= 1.00D+00 WtEn= 0.00D+00
 Coeff-Com:  0.146D-04-0.718D-04-0.123D-03-0.509D-03-0.355D-03-0.704D-03
 Coeff-Com:  0.177D-01 0.105D+00 0.299D+00 0.580D+00
 Coeff:      0.146D-04-0.718D-04-0.123D-03-0.509D-03-0.355D-03-0.704D-03
 Coeff:      0.177D-01 0.105D+00 0.299D+00 0.580D+00
 Gap=     0.176 Goal=   None    Shift=    0.000
 RMSDP=2.77D-07 MaxDP=1.45D-05 DE=-1.19D-08 OVMax= 1.08D-05

 Cycle  11  Pass 1  IDiag  1:
 RMSU=  1.64D-07    CP:  9.69D-01  9.61D-01  7.56D-01  6.08D-01  7.75D-01
                    CP:  5.34D-01  7.15D-01  8.07D-01  7.11D-01  6.61D-01
 E= -651.626312951614     Delta-E=       -0.000000001855 Rises=F Damp=F
 DIIS: error= 6.14D-07 at cycle  11 NSaved=  11.
 NSaved=11 IEnMin=11 EnMin= -651.626312951614     IErMin=11 ErrMin= 6.14D-07
 ErrMax= 6.14D-07  0.00D+00 EMaxC= 1.00D-01 BMatC= 2.02D-10 BMatP= 2.43D-09
 IDIUse=1 WtCom= 1.00D+00 WtEn= 0.00D+00
 Coeff-Com:  0.668D-05-0.144D-04-0.839D-04-0.338D-03-0.920D-03-0.189D-02
 Coeff-Com:  0.112D-02 0.256D-01 0.117D+00 0.310D+00 0.549D+00
 Coeff:      0.668D-05-0.144D-04-0.839D-04-0.338D-03-0.920D-03-0.189D-02
 Coeff:      0.112D-02 0.256D-01 0.117D+00 0.310D+00 0.549D+00
 Gap=     0.176 Goal=   None    Shift=    0.000
 RMSDP=8.12D-08 MaxDP=3.83D-06 DE=-1.85D-09 OVMax= 2.91D-06

 Cycle  12  Pass 1  IDiag  1:
 RMSU=  5.47D-08    CP:  9.69D-01  9.61D-01  7.56D-01  6.08D-01  7.75D-01
                    CP:  5.33D-01  7.15D-01  8.12D-01  7.12D-01  7.13D-01
                    CP:  7.78D-01
 E= -651.626312951762     Delta-E=       -0.000000000147 Rises=F Damp=F
 DIIS: error= 1.77D-07 at cycle  12 NSaved=  12.
 NSaved=12 IEnMin=12 EnMin= -651.626312951762     IErMin=12 ErrMin= 1.77D-07
 ErrMax= 1.77D-07  0.00D+00 EMaxC= 1.00D-01 BMatC= 1.95D-11 BMatP= 2.02D-10
 IDIUse=1 WtCom= 1.00D+00 WtEn= 0.00D+00
 Coeff-Com:  0.153D-05 0.117D-05-0.244D-04-0.105D-03-0.397D-03-0.924D-03
 Coeff-Com: -0.164D-02-0.149D-02 0.196D-01 0.829D-01 0.278D+00 0.624D+00
 Coeff:      0.153D-05 0.117D-05-0.244D-04-0.105D-03-0.397D-03-0.924D-03
 Coeff:     -0.164D-02-0.149D-02 0.196D-01 0.829D-01 0.278D+00 0.624D+00
 Gap=     0.176 Goal=   None    Shift=    0.000
 RMSDP=2.40D-08 MaxDP=8.41D-07 DE=-1.47D-10 OVMax= 6.95D-07

 Cycle  13  Pass 1  IDiag  1:
 RMSU=  1.44D-08    CP:  9.69D-01  9.61D-01  7.56D-01  6.08D-01  7.75D-01
                    CP:  5.33D-01  7.15D-01  8.12D-01  7.17D-01  7.25D-01
                    CP:  8.08D-01  8.06D-01
 E= -651.626312951781     Delta-E=       -0.000000000019 Rises=F Damp=F
 DIIS: error= 3.26D-08 at cycle  13 NSaved=  13.
 NSaved=13 IEnMin=13 EnMin= -651.626312951781     IErMin=13 ErrMin= 3.26D-08
 ErrMax= 3.26D-08  0.00D+00 EMaxC= 1.00D-01 BMatC= 1.42D-12 BMatP= 1.95D-11
 IDIUse=1 WtCom= 1.00D+00 WtEn= 0.00D+00
 Coeff-Com:  0.343D-06 0.121D-05-0.449D-05-0.244D-04-0.104D-03-0.295D-03
 Coeff-Com: -0.717D-03-0.237D-02 0.980D-03 0.171D-01 0.905D-01 0.294D+00
 Coeff-Com:  0.601D+00
 Coeff:      0.343D-06 0.121D-05-0.449D-05-0.244D-04-0.104D-03-0.295D-03
 Coeff:     -0.717D-03-0.237D-02 0.980D-03 0.171D-01 0.905D-01 0.294D+00
 Coeff:      0.601D+00
 Gap=     0.176 Goal=   None    Shift=    0.000
 RMSDP=6.83D-09 MaxDP=2.58D-07 DE=-1.93D-11 OVMax= 2.84D-07

 Error on total polarization charges =  0.00884
 SCF Done:  E(RB3LYP) =  -651.626312952     A.U. after   13 cycles
            NFock= 13  Conv=0.68D-08     -V/T= 2.0094
 KE= 6.455434949648D+02 PE=-3.422668892253D+03 EE= 1.172737183152D+03
 Leave Link  502 at Thu Jan 29 20:23:26 2026, MaxMem=  4294967296 cpu:             279.2 elap:              17.8
 (Enter /root/g16/l801.exe)
 DoSCS=F DFT=T ScalE2(SS,OS)=  1.000000  1.000000
 Range of M.O.s used for correlation:     1   256
 NBasis=   256 NAE=    51 NBE=    51 NFC=     0 NFV=     0
 NROrb=    256 NOA=    51 NOB=    51 NVA=   205 NVB=   205
 Leave Link  801 at Thu Jan 29 20:23:26 2026, MaxMem=  4294967296 cpu:               0.3 elap:               0.0
 (Enter /root/g16/l1101.exe)
 Using compressed storage, NAtomX=    26.
 Will process     27 centers per pass.
   1 Symmetry operations used in ECPInt.
 ECPInt:  NShTT=    7260 NPrTT=   26324 LenC2=    7150 LenP2D=   19951.
 LDataN:  DoStor=T MaxTD1= 5 Len=  102
 R6Disp: Adding Grimme-D3(BJ) dispersion energy 1st derivatives to the gradient.
 Leave Link 1101 at Thu Jan 29 20:23:26 2026, MaxMem=  4294967296 cpu:               3.6 elap:               0.2
 (Enter /root/g16/l1102.exe)
 Symmetrizing basis deriv contribution to polar:
 IMax=3 JMax=2 DiffMx= 0.00D+00
 Leave Link 1102 at Thu Jan 29 20:23:27 2026, MaxMem=  4294967296 cpu:               0.3 elap:               0.0
 (Enter /root/g16/l1110.exe)
 Forming Gx(P) for the SCF density, NAtomX=    26.
 Integral derivatives from FoFJK, PRISM(SPDF).
 Do as many integral derivatives as possible in FoFJK.
 G2DrvN: MDV=    4294965288.
 G2DrvN: will do    27 centers at a time, making    1 passes.
 Calling FoFCou, ICntrl=  3107 FMM=F I1Cent=   0 AccDes= 0.00D+00.
 FoFJK:  IHMeth= 1 ICntrl=    3107 DoSepK=F KAlg= 0 I1Cent=           0 FoldK=F
 IRaf=         0 NMat=       1 IRICut=       1 DoRegI=T DoRafI=F ISym2E= 0 IDoP0=0 IntGTp=1.
 FoFCou: FMM=F IPFlag=           0 FMFlag=      100000 FMFlg1=           0
         NFxFlg=           0 DoJE=F BraDBF=F KetDBF=F FulRan=T
         wScrn=  0.000000 ICntrl=      3107 IOpCl=  0 I1Cent=           0 NGrid=           0
         NMat0=    1 NMatS0=      1 NMatT0=    0 NMatD0=    1 NMtDS0=    0 NMtDT0=    0
 Symmetry not used in FoFCou.
 NEqPCM:  Using equilibrium solvation (IEInf=0, Eps=  20.4930, EpsInf=   1.8463)
 G2PCM: DoFxE=T DoFxN=T DoGrad=T DoDP/DQ/DG/TGxP=FFFF NFrqRd=   0 IEInf=0 SqF1=F DoCFld=F IF1Alg=4.
 GePol: Maximum number of non-zero 1st derivatives   =     226
 End of G2Drv F.D. properties file   721 does not exist.
 End of G2Drv F.D. properties file   722 does not exist.
 End of G2Drv F.D. properties file   788 does not exist.
 Leave Link 1110 at Thu Jan 29 20:23:53 2026, MaxMem=  4294967296 cpu:             417.0 elap:              26.3
 (Enter /root/g16/l1002.exe)
 Minotr:  Closed shell wavefunction.
          IDoAtm=11111111111111111111111111
 NEqPCM:  Using equilibrium solvation (IEInf=0, Eps=  20.4930, EpsInf=   1.8463)
          Direct CPHF calculation.
          Differentiating once with respect to nuclear coordinates.
          Requested convergence is 1.0D-08 RMS, and 1.0D-07 maximum.
          Secondary convergence is 1.0D-12 RMS, and 1.0D-12 maximum.
          NewPWx=T KeepS1=F KeepF1=F KeepIn=T MapXYZ=F SortEE=F KeepMc=T.
         7763 words used for storage of precomputed grid.
 Keep R1 ints in memory in canonical form, NReq=558668835.
 FoFCou: FMM=F IPFlag=           0 FMFlag=           0 FMFlg1=           0
         NFxFlg=           0 DoJE=F BraDBF=F KetDBF=F FulRan=T
         wScrn=  0.000000 ICntrl=       600 IOpCl=  0 I1Cent=           0 NGrid=           0
         NMat0=    1 NMatS0=  32896 NMatT0=    0 NMatD0=    1 NMtDS0=    0 NMtDT0=    0
 Symmetry not used in FoFCou.
 Two-electron integral symmetry not used.
          MDV=    4294967296 using IRadAn=       1.
          Solving linear equations simultaneously, MaxMat=       0.
          There are    81 degrees of freedom in the 1st order CPHF.  IDoFFX=6 NUNeed=     0.
     75 vectors produced by pass  0 Test12= 1.29D-14 1.23D-09 XBig12= 1.70D-01 9.18D-02.
 AX will form    75 AO Fock derivatives at one time.
     75 vectors produced by pass  1 Test12= 1.29D-14 1.23D-09 XBig12= 3.04D-02 5.90D-02.
     75 vectors produced by pass  2 Test12= 1.29D-14 1.23D-09 XBig12= 3.23D-04 2.98D-03.
     75 vectors produced by pass  3 Test12= 1.29D-14 1.23D-09 XBig12= 1.52D-06 1.46D-04.
     75 vectors produced by pass  4 Test12= 1.29D-14 1.23D-09 XBig12= 5.21D-09 7.58D-06.
     53 vectors produced by pass  5 Test12= 1.29D-14 1.23D-09 XBig12= 6.29D-12 2.32D-07.
     12 vectors produced by pass  6 Test12= 1.29D-14 1.23D-09 XBig12= 6.16D-15 6.46D-09.
 InvSVY:  IOpt=1 It=  1 EMax= 5.55D-16
 Solved reduced A of dimension   440 with    81 vectors.
 End of Minotr F.D. properties file   721 does not exist.
 End of Minotr F.D. properties file   722 does not exist.
 End of Minotr F.D. properties file   788 does not exist.
 Leave Link 1002 at Thu Jan 29 20:24:25 2026, MaxMem=  4294967296 cpu:             511.9 elap:              31.8
 (Enter /root/g16/l601.exe)
 Copying SCF densities to generalized density rwf, IOpCl= 0 IROHF=0.

 **********************************************************************

            Population analysis using the SCF density.

 **********************************************************************

 Orbital symmetries:
       Occupied  (A) (A) (A) (A) (A) (A) (A) (A) (A) (A) (A) (A)
                 (A) (A) (A) (A) (A) (A) (A) (A) (A) (A) (A) (A)
                 (A) (A) (A) (A) (A) (A) (A) (A) (A) (A) (A) (A)
                 (A) (A) (A) (A) (A) (A) (A) (A) (A) (A) (A) (A)
                 (A) (A) (A)
       Virtual   (A) (A) (A) (A) (A) (A) (A) (A) (A) (A) (A) (A)
                 (A) (A) (A) (A) (A) (A) (A) (A) (A) (A) (A) (A)
                 (A) (A) (A) (A) (A) (A) (A) (A) (A) (A) (A) (A)
                 (A) (A) (A) (A) (A) (A) (A) (A) (A) (A) (A) (A)
                 (A) (A) (A) (A) (A) (A) (A) (A) (A) (A) (A) (A)
                 (A) (A) (A) (A) (A) (A) (A) (A) (A) (A) (A) (A)
                 (A) (A) (A) (A) (A) (A) (A) (A) (A) (A) (A) (A)
                 (A) (A) (A) (A) (A) (A) (A) (A) (A) (A) (A) (A)
                 (A) (A) (A) (A) (A) (A) (A) (A) (A) (A) (A) (A)
                 (A) (A) (A) (A) (A) (A) (A) (A) (A) (A) (A) (A)
                 (A) (A) (A) (A) (A) (A) (A) (A) (A) (A) (A) (A)
                 (A) (A) (A) (A) (A) (A) (A) (A) (A) (A) (A) (A)
                 (A) (A) (A) (A) (A) (A) (A) (A) (A) (A) (A) (A)
                 (A) (A) (A) (A) (A) (A) (A) (A) (A) (A) (A) (A)
                 (A) (A) (A) (A) (A) (A) (A) (A) (A) (A) (A) (A)
                 (A) (A) (A) (A) (A) (A) (A) (A) (A) (A) (A) (A)
                 (A) (A) (A) (A) (A) (A) (A) (A) (A) (A) (A) (A)
                 (A)
 The electronic state is 1-A.
 Alpha  occ. eigenvalues --  -19.15197 -19.13869 -19.12727 -10.28355 -10.27299
 Alpha  occ. eigenvalues --  -10.25771 -10.24348 -10.22272 -10.20884 -10.20265
 Alpha  occ. eigenvalues --  -10.20067 -10.19646 -10.19504 -10.19499  -1.06867
 Alpha  occ. eigenvalues --   -1.04862  -1.03182  -0.85467  -0.79951  -0.79293
 Alpha  occ. eigenvalues --   -0.76630  -0.72394  -0.64435  -0.64252  -0.62023
 Alpha  occ. eigenvalues --   -0.57870  -0.54806  -0.53230  -0.51993  -0.51320
 Alpha  occ. eigenvalues --   -0.48556  -0.47819  -0.45878  -0.44855  -0.43955
 Alpha  occ. eigenvalues --   -0.42810  -0.42374  -0.41805  -0.41028  -0.39336
 Alpha  occ. eigenvalues --   -0.38718  -0.37092  -0.36818  -0.36200  -0.35483
 Alpha  occ. eigenvalues --   -0.34858  -0.33534  -0.30142  -0.27699  -0.26234
 Alpha  occ. eigenvalues --   -0.24298
 Alpha virt. eigenvalues --   -0.06743  -0.02879   0.03589   0.05222   0.06701
 Alpha virt. eigenvalues --    0.08264   0.09725   0.10507   0.11502   0.12280
 Alpha virt. eigenvalues --    0.12748   0.13374   0.14131   0.15002   0.15341
 Alpha virt. eigenvalues --    0.16071   0.17933   0.18764   0.20580   0.21277
 Alpha virt. eigenvalues --    0.22460   0.24460   0.25316   0.25864   0.26939
 Alpha virt. eigenvalues --    0.28560   0.29830   0.32615   0.33941   0.35694
 Alpha virt. eigenvalues --    0.37657   0.41483   0.42924   0.43492   0.43971
 Alpha virt. eigenvalues --    0.46932   0.48033   0.48945   0.50562   0.51205
 Alpha virt. eigenvalues --    0.52485   0.54426   0.55513   0.56211   0.57414
 Alpha virt. eigenvalues --    0.57723   0.58973   0.59559   0.60660   0.61217
 Alpha virt. eigenvalues --    0.61845   0.63060   0.63801   0.64442   0.65266
 Alpha virt. eigenvalues --    0.66023   0.66067   0.67009   0.67083   0.67716
 Alpha virt. eigenvalues --    0.67923   0.68313   0.68866   0.69904   0.70279
 Alpha virt. eigenvalues --    0.70895   0.71807   0.72818   0.74544   0.75561
 Alpha virt. eigenvalues --    0.77846   0.79651   0.81786   0.84341   0.85497
 Alpha virt. eigenvalues --    0.86090   0.88222   0.92017   0.94578   0.95914
 Alpha virt. eigenvalues --    0.98770   0.99524   1.03099   1.06343   1.09129
 Alpha virt. eigenvalues --    1.10141   1.13999   1.14720   1.16347   1.17316
 Alpha virt. eigenvalues --    1.19770   1.20737   1.25298   1.26904   1.28321
 Alpha virt. eigenvalues --    1.30399   1.31704   1.36337   1.39090   1.41246
 Alpha virt. eigenvalues --    1.42254   1.43876   1.45654   1.48647   1.52728
 Alpha virt. eigenvalues --    1.54963   1.55477   1.56893   1.60687   1.62663
 Alpha virt. eigenvalues --    1.65649   1.66535   1.67512   1.69749   1.71068
 Alpha virt. eigenvalues --    1.71880   1.73366   1.74265   1.75323   1.75922
 Alpha virt. eigenvalues --    1.77615   1.78567   1.78966   1.80143   1.80635
 Alpha virt. eigenvalues --    1.81969   1.83277   1.83822   1.84839   1.86022
 Alpha virt. eigenvalues --    1.87355   1.88773   1.89357   1.90072   1.91194
 Alpha virt. eigenvalues --    1.92565   1.94098   1.95121   1.96725   1.97655
 Alpha virt. eigenvalues --    1.98608   2.00909   2.02403   2.05392   2.06826
 Alpha virt. eigenvalues --    2.08705   2.10179   2.12765   2.14118   2.16333
 Alpha virt. eigenvalues --    2.18271   2.19327   2.21686   2.24393   2.24424
 Alpha virt. eigenvalues --    2.27036   2.30232   2.30710   2.31593   2.33402
 Alpha virt. eigenvalues --    2.37099   2.37594   2.40039   2.42614   2.46631
 Alpha virt. eigenvalues --    2.48287   2.51731   2.53806   2.55685   2.57886
 Alpha virt. eigenvalues --    2.60085   2.60608   2.63745   2.66529   2.68725
 Alpha virt. eigenvalues --    2.69729   2.71111   2.72700   2.75733   2.77446
 Alpha virt. eigenvalues --    2.79326   2.81791   2.84413   2.87943   2.89599
 Alpha virt. eigenvalues --    2.90579   2.91534   2.93767   2.94968   2.97777
 Alpha virt. eigenvalues --    3.01080   3.03354   3.05143   3.06113   3.08850
 Alpha virt. eigenvalues --    3.13828   3.16047   3.18645   3.22924   3.31506
 Alpha virt. eigenvalues --    3.38908   3.40585   3.58109   3.62632   3.63789
          Condensed to atoms (all electrons):
               1          2          3          4          5          6
     1  O    7.668899   0.721360  -0.095219   0.006638  -0.000101   0.000003
     2  C    0.721360   4.884962   0.182878   0.089377   0.007227  -0.000433
     3  C   -0.095219   0.182878   5.482232   0.244818  -0.056360  -0.007135
     4  C    0.006638   0.089377   0.244818   5.521801   0.397404  -0.050185
     5  C   -0.000101   0.007227  -0.056360   0.397404   4.542118   0.435120
     6  C    0.000003  -0.000433  -0.007135  -0.050185   0.435120   4.538072
     7  C    0.000000  -0.000097  -0.002580  -0.018232  -0.068968   0.437889
     8  C    0.000022   0.003728   0.000579  -0.003529  -0.023172  -0.032919
     9  O    0.000004  -0.000402   0.001546  -0.004781   0.000570  -0.006137
    10  C    0.000067  -0.021648  -0.011046  -0.018121   0.011850  -0.006759
    11  C    0.000069  -0.050107   0.025211  -0.054646  -0.001683   0.000071
    12  C   -0.085733   0.209393  -0.152090  -0.004369  -0.000288   0.000012
    13  O    0.001478  -0.028891   0.001839  -0.052093   0.003174   0.000131
    14  C    0.000704  -0.036989  -0.006338   0.201612  -0.069101  -0.004515
    15  H    0.005721  -0.050366   0.410426  -0.060968  -0.016957  -0.000640
    16  H   -0.000004   0.001008  -0.019178  -0.001446   0.339518  -0.003210
    17  H    0.000002  -0.000892   0.011536  -0.011335   0.349131  -0.010626
    18  H   -0.000000   0.000025   0.000105   0.008853  -0.017418   0.361463
    19  H   -0.000002  -0.000849   0.006279  -0.013460  -0.008021   0.361131
    20  H   -0.000000  -0.000106   0.000747  -0.013981   0.003508  -0.020423
    21  H    0.000000   0.000006  -0.000076   0.001362   0.009061   0.007956
    22  H   -0.000009   0.000047   0.000352   0.005866  -0.000302   0.000430
    23  H    0.002969   0.000819   0.000123   0.001060   0.000090   0.000049
    24  H   -0.000225   0.006207  -0.001546   0.001363   0.000001  -0.000025
    25  H    0.008728  -0.019449   0.013244   0.000411   0.000084   0.000002
    26  H    0.000015   0.001005   0.008375  -0.028423  -0.008032  -0.001406
               7          8          9         10         11         12
     1  O    0.000000   0.000022   0.000004   0.000067   0.000069  -0.085733
     2  C   -0.000097   0.003728  -0.000402  -0.021648  -0.050107   0.209393
     3  C   -0.002580   0.000579   0.001546  -0.011046   0.025211  -0.152090
     4  C   -0.018232  -0.003529  -0.004781  -0.018121  -0.054646  -0.004369
     5  C   -0.068968  -0.023172   0.000570   0.011850  -0.001683  -0.000288
     6  C    0.437889  -0.032919  -0.006137  -0.006759   0.000071   0.000012
     7  C    4.820026   0.369437  -0.082651  -0.176825   0.011823  -0.000084
     8  C    0.369437   4.896197   0.735470  -0.013363   0.006357  -0.004984
     9  O   -0.082651   0.735470   7.649784  -0.139039   0.008485  -0.000452
    10  C   -0.176825  -0.013363  -0.139039   5.917344   0.218113  -0.049578
    11  C    0.011823   0.006357   0.008485   0.218113   4.733608   0.347146
    12  C   -0.000084  -0.004984  -0.000452  -0.049578   0.347146   5.083953
    13  O   -0.000422   0.003738  -0.000021  -0.055906  -0.063698   0.265377
    14  C    0.026102   0.036748   0.006363   0.164658  -0.018239  -0.053775
    15  H    0.000152   0.000666   0.000057  -0.001864  -0.000659   0.016584
    16  H    0.009709   0.000640  -0.000013  -0.001293   0.000066  -0.000247
    17  H   -0.009128  -0.003221  -0.000042   0.002125  -0.000059   0.000401
    18  H   -0.009886   0.007688  -0.000113  -0.000798   0.000033  -0.000008
    19  H   -0.043942  -0.003282   0.008685   0.003301  -0.000043   0.000120
    20  H    0.333049   0.001873   0.003814  -0.003677   0.000718  -0.000026
    21  H    0.306155   0.001078   0.004073   0.019166  -0.000804   0.000013
    22  H   -0.002978   0.022198   0.002003   0.244071   0.020978  -0.002629
    23  H    0.003231  -0.016242   0.027183  -0.003621   0.319935  -0.004993
    24  H   -0.000411   0.005956   0.000373   0.014660   0.307138   0.017350
    25  H    0.000016  -0.000781  -0.000025   0.010873  -0.008004   0.324410
    26  H    0.003894  -0.008631  -0.000187   0.003331   0.009964   0.003360
              13         14         15         16         17         18
     1  O    0.001478   0.000704   0.005721  -0.000004   0.000002  -0.000000
     2  C   -0.028891  -0.036989  -0.050366   0.001008  -0.000892   0.000025
     3  C    0.001839  -0.006338   0.410426  -0.019178   0.011536   0.000105
     4  C   -0.052093   0.201612  -0.060968  -0.001446  -0.011335   0.008853
     5  C    0.003174  -0.069101  -0.016957   0.339518   0.349131  -0.017418
     6  C    0.000131  -0.004515  -0.000640  -0.003210  -0.010626   0.361463
     7  C   -0.000422   0.026102   0.000152   0.009709  -0.009128  -0.009886
     8  C    0.003738   0.036748   0.000666   0.000640  -0.003221   0.007688
     9  O   -0.000021   0.006363   0.000057  -0.000013  -0.000042  -0.000113
    10  C   -0.055906   0.164658  -0.001864  -0.001293   0.002125  -0.000798
    11  C   -0.063698  -0.018239  -0.000659   0.000066  -0.000059   0.000033
    12  C    0.265377  -0.053775   0.016584  -0.000247   0.000401  -0.000008
    13  O    7.999682   0.311800  -0.000871  -0.000212   0.000251   0.000003
    14  C    0.311800   4.830539   0.011054   0.012236  -0.013617  -0.000029
    15  H   -0.000871   0.011054   0.696901   0.005777   0.000336  -0.000098
    16  H   -0.000212   0.012236   0.005777   0.684615  -0.029654  -0.002661
    17  H    0.000251  -0.013617   0.000336  -0.029654   0.690564  -0.011173
    18  H    0.000003  -0.000029  -0.000098  -0.002661  -0.011173   0.679938
    19  H    0.000001  -0.001298   0.000970  -0.011082   0.008414  -0.025761
    20  H    0.000085   0.005828  -0.000007   0.000019   0.004238  -0.005577
    21  H    0.000002  -0.001977  -0.000008  -0.000479   0.000143  -0.011889
    22  H    0.001655   0.024745   0.000034   0.000033  -0.000131   0.000037
    23  H    0.003863  -0.003081  -0.000298  -0.000007  -0.000007   0.000008
    24  H    0.002201  -0.001239   0.000042  -0.000000   0.000003  -0.000000
    25  H   -0.017819   0.000748  -0.000562  -0.000002   0.000002   0.000000
    26  H   -0.021104   0.347065  -0.000347  -0.000165   0.007272   0.000008
              19         20         21         22         23         24
     1  O   -0.000002  -0.000000   0.000000  -0.000009   0.002969  -0.000225
     2  C   -0.000849  -0.000106   0.000006   0.000047   0.000819   0.006207
     3  C    0.006279   0.000747  -0.000076   0.000352   0.000123  -0.001546
     4  C   -0.013460  -0.013981   0.001362   0.005866   0.001060   0.001363
     5  C   -0.008021   0.003508   0.009061  -0.000302   0.000090   0.000001
     6  C    0.361131  -0.020423   0.007956   0.000430   0.000049  -0.000025
     7  C   -0.043942   0.333049   0.306155  -0.002978   0.003231  -0.000411
     8  C   -0.003282   0.001873   0.001078   0.022198  -0.016242   0.005956
     9  O    0.008685   0.003814   0.004073   0.002003   0.027183   0.000373
    10  C    0.003301  -0.003677   0.019166   0.244071  -0.003621   0.014660
    11  C   -0.000043   0.000718  -0.000804   0.020978   0.319935   0.307138
    12  C    0.000120  -0.000026   0.000013  -0.002629  -0.004993   0.017350
    13  O    0.000001   0.000085   0.000002   0.001655   0.003863   0.002201
    14  C   -0.001298   0.005828  -0.001977   0.024745  -0.003081  -0.001239
    15  H    0.000970  -0.000007  -0.000008   0.000034  -0.000298   0.000042
    16  H   -0.011082   0.000019  -0.000479   0.000033  -0.000007  -0.000000
    17  H    0.008414   0.004238   0.000143  -0.000131  -0.000007   0.000003
    18  H   -0.025761  -0.005577  -0.011889   0.000037   0.000008  -0.000000
    19  H    0.693495   0.009957  -0.002894  -0.000071  -0.000200   0.000006
    20  H    0.009957   0.687850  -0.022762   0.001535  -0.000177  -0.000007
    21  H   -0.002894  -0.022762   0.669788  -0.001048  -0.000086   0.000021
    22  H   -0.000071   0.001535  -0.001048   0.660936   0.005053  -0.015851
    23  H   -0.000200  -0.000177  -0.000086   0.005053   0.671948  -0.022269
    24  H    0.000006  -0.000007   0.000021  -0.015851  -0.022269   0.682374
    25  H    0.000000   0.000002  -0.000000  -0.000051   0.004866  -0.017380
    26  H    0.000056  -0.000794   0.000022  -0.013904  -0.000517  -0.000184
              25         26
     1  O    0.008728   0.000015
     2  C   -0.019449   0.001005
     3  C    0.013244   0.008375
     4  C    0.000411  -0.028423
     5  C    0.000084  -0.008032
     6  C    0.000002  -0.001406
     7  C    0.000016   0.003894
     8  C   -0.000781  -0.008631
     9  O   -0.000025  -0.000187
    10  C    0.010873   0.003331
    11  C   -0.008004   0.009964
    12  C    0.324410   0.003360
    13  O   -0.017819  -0.021104
    14  C    0.000748   0.347065
    15  H   -0.000562  -0.000347
    16  H   -0.000002  -0.000165
    17  H    0.000002   0.007272
    18  H    0.000000   0.000008
    19  H    0.000000   0.000056
    20  H    0.000002  -0.000794
    21  H   -0.000000   0.000022
    22  H   -0.000051  -0.013904
    23  H    0.004866  -0.000517
    24  H   -0.017380  -0.000184
    25  H    0.695096  -0.000393
    26  H   -0.000393   0.687836
 Mulliken charges:
               1
     1  O   -0.235385
     2  C    0.102190
     3  C   -0.038721
     4  C   -0.144996
     5  C    0.171544
     6  C    0.002083
     7  C    0.094720
     8  C    0.017749
     9  O   -0.214545
    10  C   -0.106023
    11  C    0.188227
    12  C    0.091136
    13  O   -0.354241
    14  C    0.229994
    15  H   -0.015076
    16  H    0.016030
    17  H    0.015467
    18  H    0.027250
    19  H    0.018490
    20  H    0.014316
    21  H    0.023175
    22  H    0.047002
    23  H    0.010301
    24  H    0.021443
    25  H    0.005985
    26  H    0.011885
 Sum of Mulliken charges =  -0.00000
 Mulliken charges with hydrogens summed into heavy atoms:
               1
     1  O   -0.235385
     2  C    0.102190
     3  C   -0.053797
     4  C   -0.144996
     5  C    0.203040
     6  C    0.047823
     7  C    0.132212
     8  C    0.017749
     9  O   -0.214545
    10  C   -0.059021
    11  C    0.219971
    12  C    0.097121
    13  O   -0.354241
    14  C    0.241879
 APT charges:
               1
     1  O    0.694979
     2  C   -0.847543
     3  C   -0.538098
     4  C   -0.295529
     5  C   -0.485681
     6  C   -0.746126
     7  C   -0.451851
     8  C   -0.787330
     9  O    0.252597
    10  C   -0.411426
    11  C   -0.436576
    12  C   -0.483690
    13  O   -0.137401
    14  C   -0.407331
    15  H    0.410746
    16  H    0.446999
    17  H    0.379012
    18  H    0.662320
    19  H    0.155495
    20  H    0.242890
    21  H    0.588364
    22  H    0.480000
    23  H    0.160435
    24  H    0.539956
    25  H    0.586007
    26  H    0.428781
 Sum of APT charges =  -0.00000
 APT charges with hydrogens summed into heavy atoms:
               1
     1  O    0.694979
     2  C   -0.847543
     3  C   -0.127352
     4  C   -0.295529
     5  C    0.340331
     6  C    0.071690
     7  C    0.379403
     8  C   -0.787330
     9  O    0.252597
    10  C    0.068574
    11  C    0.263814
    12  C    0.102318
    13  O   -0.137401
    14  C    0.021450
 Electronic spatial extent (au):  <R**2>=           2162.7001
 Charge=             -0.0000 electrons
 Dipole moment (field-independent basis, Debye):
    X=             -5.4436    Y=             -0.1787    Z=              4.2628  Tot=              6.9164
 Quadrupole moment (field-independent basis, Debye-Ang):
   XX=            -84.3136   YY=            -78.6287   ZZ=            -89.7289
   XY=              7.8616   XZ=              0.6361   YZ=              4.5766
 Traceless Quadrupole moment (field-independent basis, Debye-Ang):
   XX=             -0.0898   YY=              5.5950   ZZ=             -5.5051
   XY=              7.8616   XZ=              0.6361   YZ=              4.5766
 Octapole moment (field-independent basis, Debye-Ang**2):
  XXX=            -38.9982  YYY=              0.0187  ZZZ=              8.9353  XYY=              0.4591
  XXY=             11.6885  XXZ=             22.4116  XZZ=            -14.7878  YZZ=             -2.7613
  YYZ=              7.7261  XYZ=             -8.5028
 Hexadecapole moment (field-independent basis, Debye-Ang**3):
 XXXX=          -1541.1592 YYYY=           -738.6398 ZZZZ=           -524.8938 XXXY=             32.9245
 XXXZ=             70.4871 YYYX=              7.0578 YYYZ=             21.7398 ZZZX=            -10.5950
 ZZZY=              5.1916 XXYY=           -373.7306 XXZZ=           -387.2595 YYZZ=           -217.6867
 XXYZ=            -12.0927 YYXZ=             -3.4892 ZZXY=             18.5307
 N-N= 9.527619011841D+02 E-N=-3.422668883449D+03  KE= 6.455434949648D+02
  Exact polarizability:   0.000   0.000   0.000   0.000   0.000   0.000
 Approx polarizability: 194.770   2.818 145.548 -34.336   2.510 176.954
 No NMR shielding tensors so no spin-rotation constants.
 Leave Link  601 at Thu Jan 29 20:24:25 2026, MaxMem=  4294967296 cpu:               1.6 elap:               0.1
 (Enter /root/g16/l701.exe)
 ... and contract with generalized density number  0.
 Compute integral second derivatives.
 R6Disp: Adding Grimme-D3(BJ) dispersion energy 2nd derivatives to the Hessian.
   1 Symmetry operations used in ECPInt.
 ECPInt:  NShTT=    7260 NPrTT=   26324 LenC2=    7150 LenP2D=   19951.
 LDataN:  DoStor=T MaxTD1= 6 Len=  172
 D2PCM: PCM CHGder 2nd derivatives, FixD1E=F FixD2E=F DoIter=F DoCFld=F I1PDM=0
 GePol: Maximum number of non-zero 2nd derivatives   =     226
 Leave Link  701 at Thu Jan 29 20:24:27 2026, MaxMem=  4294967296 cpu:              40.0 elap:               2.5
 (Enter /root/g16/l702.exe)
 L702 exits ... SP integral derivatives will be done elsewhere.
 Leave Link  702 at Thu Jan 29 20:24:27 2026, MaxMem=  4294967296 cpu:               0.1 elap:               0.0
 (Enter /root/g16/l703.exe)
 Integral derivatives from FoFJK, PRISM(SPDF).
 Compute integral second derivatives, UseDBF=F ICtDFT=           0.
 Calling FoFJK, ICntrl=    100147 FMM=F ISym2X=0 I1Cent= 0 IOpClX= 0 NMat=1 NMatS=1 NMatT=0.
 FoFJK:  IHMeth= 1 ICntrl=  100147 DoSepK=F KAlg= 0 I1Cent=           0 FoldK=F
 IRaf=         0 NMat=       1 IRICut=       1 DoRegI=T DoRafI=F ISym2E= 0 IDoP0=0 IntGTp=1.
 FoFCou: FMM=F IPFlag=           0 FMFlag=      100000 FMFlg1=         800
         NFxFlg=           0 DoJE=F BraDBF=F KetDBF=F FulRan=T
         wScrn=  0.000000 ICntrl=    100147 IOpCl=  0 I1Cent=           0 NGrid=           0
         NMat0=    1 NMatS0=      1 NMatT0=    0 NMatD0=    1 NMtDS0=    0 NMtDT0=    0
 Symmetry not used in FoFCou.
 Leave Link  703 at Thu Jan 29 20:25:04 2026, MaxMem=  4294967296 cpu:             581.0 elap:              36.4
 (Enter /root/g16/l716.exe)
 Dipole        =-2.14167501D+00-7.03139397D-02 1.67710559D+00
 Polarizability= 0.00000000D+00 0.00000000D+00 0.00000000D+00
                 0.00000000D+00 0.00000000D+00 0.00000000D+00
 ***** Axes restored to original set *****
 -------------------------------------------------------------------
 Center     Atomic                   Forces (Hartrees/Bohr)
 Number     Number              X              Y              Z
 -------------------------------------------------------------------
      1        8           0.005403644   -0.000171122    0.005649868
      2        6           0.001371022   -0.001220500   -0.007354116
      3        6           0.004734960    0.002394821    0.003221893
      4        6          -0.002338243    0.007759686   -0.010527939
      5        6          -0.000019166   -0.004179618    0.007407621
      6        6           0.001350984   -0.000311869   -0.008297770
      7        6          -0.000022063    0.002480758    0.010697629
      8        6          -0.002484521   -0.004518613   -0.013780668
      9        8          -0.000349728   -0.002798362    0.010427158
     10        6           0.004134112   -0.001323825    0.005101749
     11        6           0.001252578    0.004582051   -0.001606468
     12        6           0.002309549   -0.005687022    0.004302096
     13        8           0.001634524    0.001235317   -0.003434781
     14        6          -0.001178380   -0.001424275   -0.001325773
     15        1          -0.001637920    0.006194550    0.007144236
     16        1           0.000530283    0.006294854    0.001872894
     17        1          -0.001886226    0.001927064   -0.005958717
     18        1          -0.006238436    0.002903231    0.000642037
     19        1           0.000104459    0.000293760    0.006330628
     20        1          -0.001709874   -0.000902903   -0.007227277
     21        1          -0.004341579   -0.003963804    0.000907134
     22        1          -0.002955122   -0.002682637   -0.004211861
     23        1          -0.000527683   -0.002839160    0.004635298
     24        1           0.001987065   -0.005261971   -0.002819555
     25        1           0.004956740   -0.000291951    0.000804940
     26        1          -0.004080979    0.001511541   -0.002600258
 -------------------------------------------------------------------
 Cartesian Forces:  Max     0.013780668 RMS     0.004514328
 FormGI is forming the generalized inverse of G from B-inverse, IUseBI=4.
 Leave Link  716 at Thu Jan 29 20:25:04 2026, MaxMem=  4294967296 cpu:               0.3 elap:               0.0
 (Enter /root/g16/l103.exe)

 GradGradGradGradGradGradGradGradGradGradGradGradGradGradGradGradGradGrad
 Berny optimization.
 Red2BG is reusing G-inverse.
 Internal  Forces:  Max     0.013122051 RMS     0.003015186
 Search for a local minimum.
 Step number   1 out of a maximum of  156
 All quantities printed in internal units (Hartrees-Bohrs-Radians)
[...]
 00098223,-0.00020155,0.00060131,0.00111250,0.00005387,-0.00032332,0.00
 029509,-0.00004844,-0.00002455,0.00010547,0.00001619,0.00005939,-0.000
 04429,0.00001089,-0.00002345,0.00001984,0.00001910,0.00002217,-0.00001
 645,0.00015129,0.00021325,0.00003952,-0.00001741,-0.00009266,-0.000014
 74,0.00106518,0.00065718,-0.00051628,-0.00268186,-0.00244930,0.0023381
 5,-0.00422176,0.00059624,-0.02653914,0.06090372,-0.00014838,0.00006561
 ,-0.00009974,0.00016147,-0.00021820,0.00002495,-0.00037384,0.00016144,
 -0.00012149,0.00140434,-0.00048419,-0.00007625,0.00193245,-0.00336520,
 0.01869033,0.00460805,-0.04608356,0.01635035,-0.00469300,-0.00202892,-
 0.03043127,-0.00074159,0.00170188,-0.00351449,-0.00041140,0.00047168,0
 .00133022,-0.00009533,-0.00039911,-0.00013484,0.00001869,0.00003683,0.
 00002833,0.00005737,0.00000925,-0.00000109,-0.00007390,0.00001712,0.00
 003886,-0.00004489,-0.00000297,-0.00005892,0.00000305,-0.00002422,-0.0
 0001963,0.00052516,0.00065946,0.00017805,-0.00341390,-0.00127901,0.002
 02784,0.00190901,-0.00069506,0.01309363,-0.00069864,0.05616419,0.00016
 254,-0.00004315,0.00011727,-0.00017320,0.00020082,-0.00007603,0.000651
 58,-0.00027453,0.00029457,-0.00159987,0.00019006,0.00017661,-0.0013259
 9,0.00183642,-0.01250161,-0.05099722,0.01520812,-0.29952619,-0.0011388
 2,-0.00203144,-0.01108780,-0.00146918,0.00178810,-0.00152085,0.0003491
 0,-0.00040742,0.00157432,0.00008420,0.00002959,0.00006221,0.00004951,-
 0.00000039,-0.00008974,-0.00004924,-0.00000087,0.00001704,0.00010803,-
 0.00001627,0.00000193,-0.00020188,-0.00004999,0.00013513,0.00001445,0.
 00000741,-0.00000084,0.00000629,-0.00006777,0.00112772,0.00210409,0.00
 137261,-0.00003739,-0.00038305,0.00015144,-0.00192202,0.05421600,-0.01
 556686,0.32216173,0.00013399,-0.00000390,0.00010038,-0.00016143,0.0000
 4797,-0.00005211,0.00015507,-0.00000919,0.00011424,-0.00029535,-0.0001
 3918,-0.00017132,0.00026134,0.00041879,-0.00070177,-0.00023461,-0.0011
 2941,-0.00107830,-0.05650357,0.00024985,-0.02418814,0.00225502,-0.0042
 7567,-0.02704019,-0.00421952,0.00618732,-0.00218004,0.00015658,0.00070
 300,0.00103425,0.00040866,-0.00000862,-0.00008314,0.00004124,0.0000813
 4,-0.00007508,0.00026837,-0.00011046,0.00016731,-0.00114841,-0.0001550
 0,-0.00048343,0.00001579,0.00001461,0.00001572,0.00007515,0.00009768,0
 .00012448,-0.00000324,-0.00005872,0.00001731,0.00006164,-0.00028178,0.
 00032400,0.00103110,0.00007037,-0.00035794,0.05465185,0.00005751,-0.00
 002280,0.00004310,-0.00008128,0.00006338,-0.00002191,0.00012675,-0.000
 01048,-0.00006884,-0.00017132,-0.00019888,0.00007631,0.00003725,0.0021
 4090,-0.00021979,-0.00455125,-0.00037658,-0.03270207,0.00110722,-0.042
 83196,0.01016695,-0.00211361,-0.00089638,0.01837041,0.00538132,-0.0033
 0369,0.00149391,-0.00051120,-0.00014988,-0.00080715,-0.00011734,-0.000
 04228,0.00004151,-0.00006912,-0.00000023,-0.00007257,0.00012820,0.0000
 0232,0.00003556,-0.00035445,0.00015051,-0.00003741,0.00000480,-0.00000
 028,0.00001904,0.00049641,0.00021764,0.00013168,0.00006864,-0.00046112
 ,0.00074070,0.00024396,0.00116463,0.00063250,-0.00031299,-0.00576146,-
 0.00218177,-0.00230953,0.05080433,-0.00007705,0.00003742,-0.00001455,0
 .00017120,-0.00010153,-0.00003597,-0.00009344,0.00011219,0.00001043,-0
 .00005100,-0.00038170,-0.00014125,0.00023594,0.00092198,0.00112372,-0.
 00137768,-0.00020495,-0.01095289,-0.02812082,0.00997279,-0.30729681,0.
 00332529,-0.00070091,-0.00579655,-0.00310730,0.00112335,-0.00051022,0.
 00033017,0.00014898,0.00016309,-0.00011239,0.00014551,0.00002256,0.000
 15666,0.00003889,-0.00004134,0.00015966,-0.00008454,0.00032105,0.00021
 655,0.00003666,-0.00056169,-0.00000134,-0.00000945,0.00002552,0.000161
 41,-0.00000770,0.00017395,-0.00053873,-0.00025460,0.00024466,0.0002183
 3,-0.00007715,0.00047187,0.00013726,-0.00226179,0.00036188,0.02989850,
 -0.00819249,0.33115546,-0.00010411,-0.00001605,-0.00012823,0.00011183,
 0.00003386,0.00018811,-0.00002018,-0.00002871,-0.00004394,0.00021302,0
 .00033566,0.00009398,0.00126200,0.00028632,-0.00047131,-0.00010370,0.0
 0056354,-0.00039269,-0.21922125,-0.09828009,0.08570522,-0.02410954,-0.
 01243634,0.01297477,0.00483470,0.00012978,0.00060025,-0.00218585,0.003
 06779,-0.00228029,-0.00048591,0.00027629,0.00090069,-0.00009296,0.0001
 9464,-0.00010885,-0.00003758,-0.00008703,0.00006137,0.00073367,0.00032
 158,-0.00061377,0.00001334,0.00000234,-0.00003578,0.00002697,-0.000024
 84,0.00021107,-0.00008560,-0.00008968,0.00011984,0.00100303,0.00015613
 ,-0.00029346,-0.00002362,-0.00010999,-0.00003469,0.00443831,0.00292988
 ,-0.00201280,0.23441230,-0.00021382,0.00008305,-0.00007647,0.00037126,
 -0.00027807,-0.00008813,-0.00046578,0.00034659,-0.00003040,0.00115816,
 -0.00029114,-0.00011396,0.00020956,-0.00473613,-0.00381475,-0.02358465
 ,-0.01555095,0.01256143,-0.09884214,-0.09537071,0.05123580,0.01785678,
 0.00630045,-0.00642742,-0.00158825,0.00065445,-0.00190479,0.00187293,-
 0.00166681,0.00112312,0.00052359,-0.00021911,-0.00050635,0.00008000,-0
 .00014078,0.00008681,-0.00008582,0.00013947,0.00005043,-0.00014483,-0.
 00020309,0.00005657,0.00000441,-0.00001009,0.00003166,-0.00124734,-0.0
 0108501,0.00066592,0.00026493,0.00032113,-0.00003483,0.00007010,0.0012
 0570,0.00073051,0.00003200,0.00105864,-0.00016882,0.00060967,-0.000405
 10,-0.00021296,0.10287310,0.10977804,-0.00001319,0.00002261,0.00001079
 ,0.00005097,-0.00007110,-0.00003299,-0.00009472,0.00008229,-0.00001150
 ,0.00025034,-0.00020012,-0.00019749,-0.00016735,-0.00187320,-0.0002115
 7,-0.01060515,-0.00673880,0.00468772,0.08850625,0.05252193,-0.09402399
 ,-0.00591906,-0.00510136,0.00250348,-0.00035920,0.00045223,0.00018643,
 0.00016793,0.00094698,0.00068778,-0.00017580,0.00007249,-0.00002888,0.
 00006820,0.00005568,-0.00006055,0.00014567,-0.00002924,0.00022060,-0.0
 0028959,-0.00003364,-0.00046854,0.00001165,0.00000430,0.00001059,-0.00
 015738,-0.00041096,0.00030225,-0.00007146,-0.00025843,0.00017348,0.000
 03052,0.00054694,0.00051062,-0.00027509,0.00046449,0.00057468,0.023847
 92,0.01269236,-0.00930499,-0.09459328,-0.05307827,0.09402768,-0.000204
 36,-0.00022418,-0.00043971,-0.00013471,0.00081111,0.00068979,0.0002980
 7,0.00012140,-0.00009424,0.00029127,-0.00043481,0.00045866,0.00003117,
 -0.00014919,-0.00009591,0.00075777,-0.00089207,0.00015233,-0.00142497,
 -0.00160944,-0.00148050,0.00942319,0.01585759,0.01696947,-0.00279697,-
 0.00330635,0.00114850,-0.06113230,-0.03822304,-0.04572266,-0.00902468,
 -0.01296245,-0.01904967,-0.00206471,0.00102683,-0.00231068,0.00113860,
 0.00011008,0.00085802,-0.00064954,-0.00252706,-0.00492265,-0.00001720,
 -0.00009103,0.00004602,0.00006882,-0.00001122,-0.00002941,0.00001734,-
 0.00001118,-0.00001461,0.00000259,-0.00012160,-0.00006573,-0.00001124,
 0.00009723,0.00000348,-0.00093007,0.00054615,0.00001140,-0.00024758,0.
 00001998,-0.00038501,0.06828260,-0.00086306,0.00031811,-0.00036336,0.0
 0146793,-0.00128786,0.00015405,-0.00086546,0.00001857,-0.00036283,-0.0
 0198708,-0.00287915,0.00366564,-0.00018292,0.00009583,-0.00023173,0.00
 004177,-0.00010784,0.00010867,0.00006774,0.00017960,-0.00060338,0.0009
 6432,0.00136321,0.00006186,-0.00060172,-0.00161920,0.00048576,-0.04387
 879,-0.13533500,-0.12355407,0.00592022,0.00638404,0.00883681,0.0001608
 9,-0.00089415,0.00081690,0.00095725,0.00238375,0.00015624,-0.00579000,
 -0.02386620,-0.01946964,0.00013329,0.00037675,-0.00045408,0.00013155,-
 0.00003325,-0.00008204,0.00003212,0.00000746,0.00002097,0.00002606,0.0
 0006825,-0.00004536,0.00003836,0.00005379,0.00001620,0.00031587,-0.000
 17854,0.00018503,0.00006175,0.00000721,0.00011113,0.04247900,0.1523868
 8,0.00025453,-0.00017810,0.00007595,-0.00033886,0.00073082,-0.00000507
 ,0.00052645,-0.00005800,0.00064258,0.00109618,0.00142458,-0.00112748,-
 0.00005472,-0.00017903,0.00002565,-0.00080036,0.00014705,0.00004779,0.
 00124830,0.00221683,0.00078004,-0.00589907,-0.01372377,-0.01935567,0.0
 0340845,0.00224866,0.00049317,-0.05296562,-0.12939001,-0.19430981,-0.0
 0307925,-0.00506402,-0.00633505,0.00000764,0.00088173,-0.00066994,-0.0
 0116698,-0.00091037,0.00021926,0.00358628,0.01271858,0.00973231,-0.000
 04282,-0.00018432,0.00020864,0.00000412,-0.00000067,0.00002833,-0.0000
 0363,-0.00001414,-0.00003663,0.00000263,0.00012017,0.00011683,-0.00002
 384,0.00005728,0.00003383,0.00034318,-0.00021958,0.00037465,0.00018979
 ,-0.00006960,0.00007723,0.05460256,0.12939610,0.20705844,-0.00025729,0
 .00050312,-0.00028829,0.00175134,-0.00037658,0.00064639,-0.00049939,0.
 00010181,-0.00011893,0.00028764,0.00003944,0.00007036,0.00000527,-0.00
 003067,-0.00006162,0.00023580,0.00010775,0.00015564,0.00026430,-0.0005
 1679,0.00004098,0.00004684,0.00091658,-0.00233326,0.00005750,-0.000370
 55,0.00175865,0.00237944,0.00344842,-0.02622875,-0.04521806,-0.0024754
 9,0.01900677,-0.00006989,0.00044458,0.01706166,-0.00089638,-0.00349440
 ,0.00180236,-0.00303953,0.00046505,-0.00144099,0.00001381,-0.00008408,
 0.00007478,-0.00002716,-0.00000945,0.00001511,-0.00000501,-0.00000122,
 -0.00000867,-0.00002440,-0.00012056,-0.00001446,-0.00002493,0.00004577
 ,-0.00000721,0.00015595,-0.00013106,0.00012400,0.00001778,-0.00000689,
 -0.00001311,-0.00292785,0.00124113,-0.00117828,0.04867066,-0.00004443,
 0.00028617,-0.00038893,0.00039787,-0.00034581,0.00159171,-0.00044214,-
 0.00025819,-0.00008708,0.00030915,0.00032900,0.00024275,-0.00008571,-0
 .00009251,-0.00007604,-0.00006311,0.00005703,-0.00004863,0.00002251,0.
 00010378,0.00029881,0.00004421,0.00055380,0.00142908,-0.00061887,-0.00
 054563,-0.00075579,-0.00041355,-0.00145699,0.00575061,-0.00230786,-0.0
 5209970,0.03296767,0.00184811,-0.00073944,0.01990454,0.00015758,-0.006
 08052,0.00443029,-0.00151395,-0.00083243,0.00137792,-0.00001630,0.0000
 4305,-0.00001245,0.00002015,-0.00000398,-0.00001537,-0.00004436,0.0000
 3908,-0.00000383,-0.00002195,0.00001322,0.00000848,0.00000645,-0.00000
 467,0.00000186,0.00002893,-0.00003264,-0.00002342,-0.00003293,0.000020
 99,-0.00003080,-0.00019561,-0.00007751,0.00017923,0.00217457,0.0564002
 2,0.00049088,-0.00020858,0.00077606,-0.00085823,-0.00048678,-0.0008260
 9,0.00024579,-0.00001817,0.00035611,-0.00015761,-0.00020278,-0.0003180
 5,0.00003165,0.00001207,0.00004438,-0.00005771,-0.00004649,-0.00003612
 ,-0.00000630,0.00007447,0.00000866,0.00219228,0.00150012,-0.00279393,0
 .00271919,-0.00162772,0.00121365,-0.00281103,0.00066114,-0.00723698,0.
 01707072,0.03674302,-0.31617421,-0.00030891,0.00038070,-0.00077843,-0.
 00025652,0.00030810,0.00053316,0.00033804,-0.00023766,-0.00076100,0.00
 000106,0.00004620,-0.00000169,-0.00000442,0.00000877,0.00000935,0.0000
 1455,-0.00002388,-0.00000064,0.00001936,0.00003729,0.00001246,0.000005
 56,0.00000713,0.00001457,-0.00002621,0.00001420,0.00004448,-0.00002031
 ,-0.00003086,0.00006057,-0.00085201,0.00091673,-0.00045544,-0.01836731
 ,-0.04086803,0.33725680,-0.00037849,-0.00011951,-0.00155637,-0.0020006
 6,-0.00110525,0.00406333,0.00111704,-0.00009119,-0.00033039,-0.0002869
 4,-0.00068831,-0.00084461,0.00006417,-0.00008229,0.00008039,-0.0000459
 8,-0.00028733,-0.00003312,-0.00084363,-0.00042854,0.00070121,-0.001704
 35,0.00213878,-0.00270023,0.00012469,-0.00016332,0.00040217,-0.0109338
 2,0.02253854,0.01031233,-0.07222052,0.07970213,0.04187732,0.00314745,-
 0.02284872,-0.01090472,0.00138716,0.00113158,0.00069802,-0.00360572,0.
 00009612,-0.00011443,0.00021102,-0.00005661,-0.00006867,0.00001956,0.0
 0000807,0.00000980,0.00005084,-0.00004798,0.00003485,0.00003889,0.0000
 8178,-0.00000861,-0.00000316,0.00000323,0.00001480,0.00007227,-0.00001
 665,-0.00002375,-0.00031773,0.00019687,0.00000005,0.00112730,-0.000238
 33,0.00056250,-0.00052424,0.00140387,0.00048234,0.08428401,-0.00039585
 ,-0.00036480,-0.00171636,-0.00249917,-0.00000902,0.00426502,0.00061162
 ,0.00021341,-0.00032709,-0.00019198,0.00021515,0.00006903,0.00003451,-
 0.00006310,0.00012138,-0.00004628,-0.00004146,0.00006077,0.00006633,0.
 00004172,-0.00019171,-0.00034676,-0.00036312,0.00089963,0.00007406,0.0
 0000319,-0.00031735,0.00061352,-0.00223998,-0.00208035,0.08029951,-0.2
 3976191,-0.10071033,0.00481299,-0.02127863,-0.01175726,0.00069065,0.00
 132604,0.00120169,0.00024883,-0.00049559,0.00030949,0.00012166,-0.0000
 6243,-0.00007371,0.00002202,-0.00002985,-0.00000550,0.00005708,-0.0000
 3308,-0.00001423,0.00002307,-0.00000360,-0.00000879,-0.00000282,0.0000
 1377,-0.00001598,-0.00002592,-0.00000430,-0.00000657,0.00001514,-0.000
 02037,-0.00000879,-0.00045083,0.00106510,0.00019596,-0.00204489,0.0055
 4108,0.00234436,-0.08197491,0.25497353,0.00037745,-0.00024590,0.000605
 40,-0.00015434,0.00117675,-0.00081068,0.00020844,-0.00039252,0.0004376
 0,-0.00017328,-0.00030333,-0.00070255,-0.00002141,-0.00000689,-0.00005
 465,0.00007256,-0.00006458,0.00002535,-0.00029651,-0.00031208,0.000115
 28,-0.00051855,0.00120175,-0.00147211,0.00070950,-0.00004131,0.0008508
 4,-0.00667264,0.01187967,0.00452707,0.04257637,-0.10365471,-0.09968520
 ,-0.00276771,0.00838365,0.00360429,0.00087144,-0.00089397,0.00023332,-
 0.00180147,0.00116881,-0.00043149,0.00002305,0.00003994,-0.00003001,0.
 00001035,-0.00000077,0.00000479,-0.00000748,-0.00000721,0.00002382,0.0
 0001467,-0.00001076,-0.00001246,-0.00001418,0.00000270,0.00001993,0.00
 001701,-0.00000046,0.00000092,-0.00008637,0.00003176,0.00001754,-0.000
 18732,0.00064222,0.00113850,0.00968747,-0.02614644,-0.01083000,-0.0416
 5291,0.10750213,0.10215396,0.00180167,-0.00044418,0.00074737,-0.000365
 84,-0.00096646,-0.00185256,0.00041669,-0.00029058,-0.00012020,-0.00005
 601,-0.00018632,-0.00008739,-0.00004160,-0.00004656,0.00020461,-0.0000
 4502,0.00004063,-0.00008004,-0.00010763,0.00003974,0.00012910,0.000188
 16,-0.00010627,-0.00065182,-0.00025614,-0.00002780,0.00030559,-0.00077
 315,-0.00078472,0.00070349,-0.00977747,0.00346908,0.00326432,-0.290148
 01,0.07236946,0.05815064,-0.01215636,0.00353820,-0.00285765,0.00166187
 ,0.00107958,-0.00191521,0.00006218,-0.00003721,0.00006349,-0.00003072,
 0.00004610,0.00003190,0.00001330,-0.00001675,-0.00000502,-0.00003487,0
 .00001752,0.00002544,0.00000784,-0.00000781,0.00001336,0.00003098,0.00
 000030,0.00002399,-0.00005096,0.00002402,0.00001876,-0.00021694,0.0000
 1560,-0.00009669,-0.00080798,-0.00064146,0.00002787,0.00097966,0.00033
 419,-0.00033477,0.31024544,-0.00202172,0.00167659,0.00319017,0.0234302
 2,-0.00733382,-0.00728314,-0.00101396,-0.00236520,-0.00278506,-0.00032
 146,0.00043338,-0.00026595,0.00002719,0.00005424,-0.00000834,-0.000095
 90,-0.00009815,0.00002496,-0.00017508,0.00006512,0.00027086,-0.0003100
 6,0.00020227,-0.00081521,-0.00020591,-0.00002251,0.00008836,-0.0028481
 5,-0.00239196,0.00153046,-0.02213573,0.00677724,0.00373749,0.06992331,
 -0.06585844,-0.01751510,0.01396366,-0.00368504,0.00082401,-0.00118528,
 -0.00142358,0.00222840,0.00058917,-0.00084371,0.00027407,0.00000218,-0
 .00000809,-0.00002453,0.00002308,0.00000397,0.00002652,0.00003296,0.00
 006414,0.00000083,0.00000321,0.00000530,-0.00000169,0.00000686,-0.0000
 1517,0.00000564,-0.00008549,0.00006448,-0.00000014,-0.00042460,0.00008
 913,-0.00018283,-0.00048150,-0.00051368,0.00039788,0.00035301,0.001626
 63,-0.00017096,-0.07761911,0.07333948,-0.00151568,0.00172042,0.0021329
 7,0.02273595,-0.00645596,-0.00263482,-0.00088929,-0.00306149,-0.002620
 38,-0.00097306,-0.00003617,-0.00049356,0.00015059,0.00030017,0.0001188
 4,0.00007265,-0.00010346,0.00001971,-0.00000309,-0.00001788,-0.0001238
 8,0.00015119,-0.00023998,0.00016337,0.00000503,0.00003107,0.00007477,0
 .00001762,0.00142730,-0.00086086,0.00641705,-0.00312896,0.00115747,0.0
 6724269,-0.01966821,-0.06465698,-0.03453065,0.00998466,0.00355220,-0.0
 0158145,0.00289676,-0.00487186,0.00076841,-0.00079165,0.00030959,-0.00
 007015,0.00005176,0.00005526,0.00007699,-0.00005275,0.00003844,0.00002
 825,0.00000414,-0.00002162,-0.00001207,0.00000171,0.00000514,0.0000096
 1,0.00000765,0.00004035,0.00002748,-0.00000766,0.00003027,0.00024346,0
 .00003831,0.00004493,-0.00019531,0.00020253,-0.00005181,-0.00082838,0.
 00012683,0.00040317,-0.05588997,0.01670851,0.06777228,-0.00012527,-0.0
 0061501,-0.00059788,-0.00040973,0.00122617,0.00071569,0.00086749,0.001
 26704,0.00074544,0.00361554,-0.00135655,0.00180699,0.00024047,0.000058
 86,0.00130501,0.00005448,0.00009796,0.00012259,-0.00039169,-0.00018015
 ,0.00006991,0.00029392,-0.00019619,-0.00005088,-0.00013920,0.00016736,
 -0.00008134,0.00672198,-0.00201901,0.00685423,-0.00102472,-0.00168190,
 0.00097798,-0.00485677,-0.00187108,0.00313139,-0.02739694,0.01090344,-
 0.02708162,-0.11376988,0.02503224,-0.10983541,0.00039062,0.00009109,-0
 .00000401,-0.00011081,-0.00008530,0.00003709,0.00006717,0.00038595,0.0
 0005423,0.00000578,0.00001662,0.00000126,-0.00005583,-0.00002352,-0.00
 003912,-0.00071710,-0.00038860,0.00034595,0.00001962,0.00001215,0.0000
 2114,0.00034441,0.00035249,-0.00018246,0.00043578,0.00002885,0.0000872
 7,0.00024121,-0.00004577,0.00012063,-0.00053910,0.00056909,-0.00145790
 ,0.13623856,-0.00028240,0.00021916,0.00018091,0.00115656,-0.00013862,-
 0.00024175,0.00145522,-0.00288769,-0.00191629,-0.01131271,0.00366227,-
 0.02231705,-0.00103050,0.00104893,-0.00041436,-0.00005756,-0.00006488,
 0.00004424,0.00005628,0.00024414,0.00033206,0.00141398,-0.00135785,-0.
 00033378,-0.00074094,0.00013450,0.00094583,0.01207763,-0.00521002,0.02
 008219,-0.00015227,-0.00263517,0.00199584,0.00022642,-0.00050207,0.000
 76911,0.00094302,0.00019051,0.00091014,0.02718005,-0.05624479,0.043225
 82,-0.00123937,-0.00073828,-0.00002874,-0.00010162,0.00001987,0.000285
 90,0.00059034,-0.00029582,0.00031661,0.00003926,0.00003408,-0.00001087
 ,-0.00001058,-0.00007239,0.00002433,-0.00032488,0.00014806,-0.00020868
 ,-0.00005668,-0.00000284,-0.00013858,0.00056530,0.00148103,-0.00014253
 ,0.00065591,-0.00030372,0.00029875,0.00049497,-0.00024837,0.00022251,0
 .00020079,0.00015739,0.00006234,-0.03174623,0.06336258,-0.00064571,0.0
 0029406,-0.00030298,0.00168078,-0.00048574,0.00020545,0.00138725,-0.00
 227126,-0.00176879,-0.01078000,0.00330399,-0.01729903,-0.00114302,0.00
 102531,0.00041831,0.00025117,-0.00006766,0.00007296,-0.00036143,-0.000
 32368,-0.00045256,-0.00082978,0.00096077,0.00027554,0.00033336,-0.0002
 2241,-0.00031262,-0.00433025,0.00090297,-0.00549508,0.00079303,0.00070
 063,-0.00000846,0.00271217,-0.00053764,0.00065689,0.00647543,-0.002346
 26,0.01272055,-0.11887609,0.04475105,-0.24778591,-0.00103464,-0.000625
 55,0.00002066,0.00002008,-0.00007731,0.00043850,0.00075959,-0.00061699
 ,0.00050575,0.00001947,0.00003207,-0.00001186,-0.00011909,-0.00000953,
 0.00008390,0.00042377,0.00005819,0.00012166,0.00004320,-0.00000877,0.0
 0025878,0.00046643,-0.00044614,0.00119696,-0.00018800,0.00007136,-0.00
 006584,-0.00017293,0.00013772,-0.00013260,0.00018138,-0.00025522,0.000
 41702,0.12293382,-0.04394396,0.25624279\\-0.00000074,-0.00000144,0.000
 00184,-0.00000103,-0.00000016,0.00000170,0.00000043,-0.00000119,0.0000
 0151,0.00000171,0.00000144,-0.00000236,0.00000037,0.00000108,0.0000055
 4,-0.00000414,0.00000054,-0.00000125,0.00000049,-0.00000124,0.00000100
 ,-0.00000152,-0.00000170,-0.00000362,0.00000023,-0.00000245,-0.0000034
 5,0.00000153,-0.00000067,-0.00000025,0.00000008,-0.00000132,-0.0000019
 4,0.00000047,0.00000094,0.00000135,0.00000089,0.00000230,0.00000124,0.
 00000017,0.00000299,-0.00000103,-0.00000088,-0.00000232,0.00000300,-0.
 00000046,-0.00000083,0.00000325,-0.00000031,0.00000105,0.00000259,-0.0
 0000029,-0.00000141,0.00000057,-0.00000058,-0.00000239,-0.00000018,0.0
 0000091,0.00000074,-0.00000082,0.,-0.00000134,-0.00000252,0.00000097,0
 .00000184,-0.00000225,-0.00000007,0.00000013,-0.00000188,0.00000061,0.
 00000117,-0.00000284,0.00000026,0.00000160,0.00000015,0.00000088,0.000
 00264,0.00000063\\\@


 MISERY NO LONGER LOVES COMPANY.  NOWADAYS IT INSISTS ON IT.

                                              -- BAKER'S LAW
 Job cpu time:       0 days  0 hours 28 minutes 41.0 seconds.
 Elapsed time:       0 days  0 hours  1 minutes 47.9 seconds.
 File lengths (MBytes):  RWF=    259 Int=      0 D2E=      0 Chk=     19 Scr=      1
 Normal termination of Gaussian 16 at Thu Jan 29 20:28:22 2026.
