 Entering Gaussian System, Link 0=g16
 Initial command:
 /root/g16/l1.exe "/root/g16/scratch/gau_root_3029678/Gau-3029685.inp" -scrdir="/root/g16/scratch/gau_root_3029678/"
 Entering Link 1 = /root/g16/l1.exe PID=   3029687.
  
 Copyright (c) 1988,1990,1992,1993,1995,1998,2003,2009,2016,
            Gaussian, Inc.  All Rights Reserved.
  
 This is part of the Gaussian(R) 16 program.  It is based on
 the Gaussian(R) 09 system (copyright 2009, Gaussian, Inc.),
 the Gaussian(R) 03 system (copyright 2003, Gaussian, Inc.),
 the Gaussian(R) 98 system (copyright 1998, Gaussian, Inc.),
 the Gaussian(R) 94 system (copyright 1995, Gaussian, Inc.),
 the Gaussian 92(TM) system (copyright 1992, Gaussian, Inc.),
 the Gaussian 90(TM) system (copyright 1990, Gaussian, Inc.),
 the Gaussian 88(TM) system (copyright 1988, Gaussian, Inc.),
 the Gaussian 86(TM) system (copyright 1986, Carnegie Mellon
 University), and the Gaussian 82(TM) system (copyright 1983,
 Carnegie Mellon University). Gaussian is a federally registered
 trademark of Gaussian, Inc.
  
 This software contains proprietary and confidential information,
 including trade secrets, belonging to Gaussian, Inc.
  
 This software is provided under written license and may be
 used, copied, transmitted, or stored only in accord with that
 written license.
  
 The following legend is applicable only to US Government
 contracts under FAR:
  
                    RESTRICTED RIGHTS LEGEND
  
 Use, reproduction and disclosure by the US Government is
 subject to restrictions as set forth in subparagraphs (a)
 and (c) of the Commercial Computer Software - Restricted
 Rights clause in FAR 52.227-19.
  
 Gaussian, Inc.
 340 Quinnipiac St., Bldg. 40, Wallingford CT 06492
  
  
 ---------------------------------------------------------------
 Warning -- This program may not be used in any manner that
 competes with the business of Gaussian, Inc. or will provide
 assistance to any competitor of Gaussian, Inc.  The licensee
 of this program is prohibited from giving any competitor of
 Gaussian, Inc. access to this program.  By using this program,
 the user acknowledges that Gaussian, Inc. is engaged in the
 business of creating and licensing software in the field of
 computational chemistry and represents and warrants to the
 licensee that it is not a competitor of Gaussian, Inc. and that
 it will not use this program in any manner prohibited above.
 ---------------------------------------------------------------
  

 Cite this work as:
 Gaussian 16, Revision A.03,
 M. J. Frisch, G. W. Trucks, H. B. Schlegel, G. E. Scuseria, 
 M. A. Robb, J. R. Cheeseman, G. Scalmani, V. Barone, 
 G. A. Petersson, H. Nakatsuji, X. Li, M. Caricato, A. V. Marenich, 
 J. Bloino, B. G. Janesko, R. Gomperts, B. Mennucci, H. P. Hratchian, 
 J. V. Ortiz, A. F. Izmaylov, J. L. Sonnenberg, D. Williams-Young, 
 F. Ding, F. Lipparini, F. Egidi, J. Goings, B. Peng, A. Petrone, 
 T. Henderson, D. Ranasinghe, V. G. Zakrzewski, J. Gao, N. Rega, 
 G. Zheng, W. Liang, M. Hada, M. Ehara, K. Toyota, R. Fukuda, 
 J. Hasegawa, M. Ishida, T. Nakajima, Y. Honda, O. Kitao, H. Nakai, 
 T. Vreven, K. Throssell, J. A. Montgomery, Jr., J. E. Peralta, 
 F. Ogliaro, M. J. Bearpark, J. J. Heyd, E. N. Brothers, K. N. Kudin, 
 V. N. Staroverov, T. A. Keith, R. Kobayashi, J. Normand, 
 K. Raghavachari, A. P. Rendell, J. C. Burant, S. S. Iyengar, 
 J. Tomasi, M. Cossi, J. M. Millam, M. Klene, C. Adamo, R. Cammi, 
 J. W. Ochterski, R. L. Martin, K. Morokuma, O. Farkas, 
 J. B. Foresman, and D. J. Fox, Gaussian, Inc., Wallingford CT, 2016.
 
 ******************************************
 Gaussian 16:  ES64L-G16RevA.03 25-Dec-2016
                29-Jan-2026 
 ******************************************
 %chk=conf_001.chk
 %mem=32GB
 %nprocshared=16
 Will use up to   16 processors via shared memory.
 --------------------------------------------------------------------
 #p B3LYP/def2SVP em=GD3BJ SCRF=(PCM,Solvent=Acetone) Opt=CalcFC Freq
 --------------------------------------------------------------------
 1/10=4,18=20,19=15,26=3,38=1/1,3;
 2/9=110,12=2,17=6,18=5,40=1/2;
 3/5=43,7=101,11=2,25=1,30=1,70=2201,71=2,72=19,74=-5,124=41,140=1/1,2,3;
 4//1;
 5/5=2,38=5,53=19/2;
 8/6=4,10=90,11=11/1;
 11/6=1,8=1,9=11,15=111,16=1/1,2,10;
 10/6=1,13=1/2;
 6/7=2,8=2,9=2,10=2,28=1/1;
 7/10=1,18=20,25=1/1,2,3,16;
 1/10=4,18=20,19=15,26=3/3(2);
 2/9=110/2;
 99//99;
 2/9=110/2;
 3/5=43,7=101,11=2,25=1,30=1,70=2205,71=1,72=19,74=-5,124=41/1,2,3;
 4/5=5,16=3,69=1/1;
 5/5=2,38=5,53=19/2;
 7//1,2,3,16;
 1/18=20,19=15,26=3/3(-5);
 2/9=110/2;
 6/7=2,8=2,9=2,10=2,19=2,28=1/1;
 99/9=1/99;
 Leave Link    1 at Thu Jan 29 20:30:28 2026, MaxMem=  4294967296 cpu:               0.3 elap:               0.0
 (Enter /root/g16/l101.exe)
 ----------------
 product_conf_001
 ----------------
 Symbolic Z-matrix:
 Charge =  0 Multiplicity = 1
 O                     2.768     0.37985   1.52682 
 C                     1.90892   0.43367   0.66716 
 C                     0.72813   1.2904    0.74946 
 C                    -0.2337    1.21151  -0.18205 
 C                    -1.56191   1.88601  -0.12246 
 C                    -2.67142   0.9057   -0.52428 
 C                    -2.63488  -0.36506   0.32548 
 C                    -1.29748  -1.05555   0.4879 
 O                    -1.00863  -1.57504   1.54091 
 C                    -0.36793  -1.15475  -0.72259 
 C                     1.01803  -1.6903   -0.33427 
 C                     1.93758  -0.46728  -0.56711 
 O                     1.34509   0.1874   -1.66829 
 C                    -0.01481   0.24865  -1.31821 
 H                     0.64845   1.93739   1.61096 
 H                    -1.73584   2.27114   0.88337 
 H                    -1.56577   2.73303  -0.81436 
 H                    -2.58798   0.65364  -1.58097 
 H                    -3.63943   1.38748  -0.38101 
 H                    -3.31374  -1.10744  -0.10541 
 H                    -2.99307  -0.15206   1.33564 
 H                    -0.85123  -1.78267  -1.47411 
 H                     1.04151  -2.02744   0.70124 
 H                     1.32576  -2.50474  -0.98718 
 H                     2.96382  -0.73709  -0.81956 
 H                    -0.56442   0.51391  -2.21979 
 
 ITRead=  0  0  0  0  0  0  0  0  0  0  0  0  0  0  0  0  0  0  0  0
 ITRead=  0  0  0  0  0  0
 MicOpt= -1 -1 -1 -1 -1 -1 -1 -1 -1 -1 -1 -1 -1 -1 -1 -1 -1 -1 -1 -1
 MicOpt= -1 -1 -1 -1 -1 -1
 NAtoms=     26 NQM=       26 NQMF=       0 NMMI=      0 NMMIF=      0
                NMic=       0 NMicF=      0.
                    Isotopes and Nuclear Properties:
 (Nuclear quadrupole moments (NQMom) in fm**2, nuclear magnetic moments (NMagM)
  in nuclear magnetons)

  Atom         1           2           3           4           5           6           7           8           9          10
 IAtWgt=          16          12          12          12          12          12          12          12          16          12
 AtmWgt=  15.9949146  12.0000000  12.0000000  12.0000000  12.0000000  12.0000000  12.0000000  12.0000000  15.9949146  12.0000000
 NucSpn=           0           0           0           0           0           0           0           0           0           0
 AtZEff=  -0.0000000  -0.0000000  -0.0000000  -0.0000000  -0.0000000  -0.0000000  -0.0000000  -0.0000000  -0.0000000  -0.0000000
 NQMom=    0.0000000   0.0000000   0.0000000   0.0000000   0.0000000   0.0000000   0.0000000   0.0000000   0.0000000   0.0000000
 NMagM=    0.0000000   0.0000000   0.0000000   0.0000000   0.0000000   0.0000000   0.0000000   0.0000000   0.0000000   0.0000000
 AtZNuc=   8.0000000   6.0000000   6.0000000   6.0000000   6.0000000   6.0000000   6.0000000   6.0000000   8.0000000   6.0000000

  Atom        11          12          13          14          15          16          17          18          19          20
 IAtWgt=          12          12          16          12           1           1           1           1           1           1
 AtmWgt=  12.0000000  12.0000000  15.9949146  12.0000000   1.0078250   1.0078250   1.0078250   1.0078250   1.0078250   1.0078250
 NucSpn=           0           0           0           0           1           1           1           1           1           1
 AtZEff=  -0.0000000  -0.0000000  -0.0000000  -0.0000000  -0.0000000  -0.0000000  -0.0000000  -0.0000000  -0.0000000  -0.0000000
 NQMom=    0.0000000   0.0000000   0.0000000   0.0000000   0.0000000   0.0000000   0.0000000   0.0000000   0.0000000   0.0000000
 NMagM=    0.0000000   0.0000000   0.0000000   0.0000000   2.7928460   2.7928460   2.7928460   2.7928460   2.7928460   2.7928460
 AtZNuc=   6.0000000   6.0000000   8.0000000   6.0000000   1.0000000   1.0000000   1.0000000   1.0000000   1.0000000   1.0000000

  Atom        21          22          23          24          25          26
 IAtWgt=           1           1           1           1           1           1
 AtmWgt=   1.0078250   1.0078250   1.0078250   1.0078250   1.0078250   1.0078250
 NucSpn=           1           1           1           1           1           1
 AtZEff=  -0.0000000  -0.0000000  -0.0000000  -0.0000000  -0.0000000  -0.0000000
 NQMom=    0.0000000   0.0000000   0.0000000   0.0000000   0.0000000   0.0000000
 NMagM=    2.7928460   2.7928460   2.7928460   2.7928460   2.7928460   2.7928460
 AtZNuc=   1.0000000   1.0000000   1.0000000   1.0000000   1.0000000   1.0000000
 Leave Link  101 at Thu Jan 29 20:30:28 2026, MaxMem=  4294967296 cpu:               5.2 elap:               0.3
 (Enter /root/g16/l103.exe)

 GradGradGradGradGradGradGradGradGradGradGradGradGradGradGradGradGradGrad
 Berny optimization.
 Initialization pass.
                           ----------------------------
                           !    Initial Parameters    !
                           ! (Angstroms and Degrees)  !
 --------------------------                            --------------------------
 ! Name  Definition              Value          Derivative Info.                !
 --------------------------------------------------------------------------------
 ! R1    R(1,2)                  1.2165         calculate D2E/DX2 analytically  !
 ! R2    R(2,3)                  1.4612         calculate D2E/DX2 analytically  !
 ! R3    R(2,12)                 1.5284         calculate D2E/DX2 analytically  !
 ! R4    R(3,4)                  1.3413         calculate D2E/DX2 analytically  !
 ! R5    R(3,15)                 1.0803         calculate D2E/DX2 analytically  !
 ! R6    R(4,5)                  1.4909         calculate D2E/DX2 analytically  !
 ! R7    R(4,14)                 1.5053         calculate D2E/DX2 analytically  !
 ! R8    R(5,6)                  1.5341         calculate D2E/DX2 analytically  !
 ! R9    R(5,16)                 1.091          calculate D2E/DX2 analytically  !
 ! R10   R(5,17)                 1.0937         calculate D2E/DX2 analytically  !
 ! R11   R(6,7)                  1.5291         calculate D2E/DX2 analytically  !
 ! R12   R(6,18)                 1.0895         calculate D2E/DX2 analytically  !
 ! R13   R(6,19)                 1.0907         calculate D2E/DX2 analytically  !
 ! R14   R(7,8)                  1.5139         calculate D2E/DX2 analytically  !
 ! R15   R(7,20)                 1.0944         calculate D2E/DX2 analytically  !
 ! R16   R(7,21)                 1.0927         calculate D2E/DX2 analytically  !
 ! R17   R(8,9)                  1.2092         calculate D2E/DX2 analytically  !
 ! R18   R(8,10)                 1.5294         calculate D2E/DX2 analytically  !
 ! R19   R(10,11)                1.5357         calculate D2E/DX2 analytically  !
 ! R20   R(10,14)                1.5649         calculate D2E/DX2 analytically  !
 ! R21   R(10,22)                1.0921         calculate D2E/DX2 analytically  !
 ! R22   R(11,12)                1.5478         calculate D2E/DX2 analytically  !
 ! R23   R(11,23)                1.0893         calculate D2E/DX2 analytically  !
 ! R24   R(11,24)                1.0883         calculate D2E/DX2 analytically  !
 ! R25   R(12,13)                1.4115         calculate D2E/DX2 analytically  !
 ! R26   R(12,25)                1.0907         calculate D2E/DX2 analytically  !
 ! R27   R(13,14)                1.4056         calculate D2E/DX2 analytically  !
 ! R28   R(14,26)                1.0887         calculate D2E/DX2 analytically  !
 ! A1    A(1,2,3)              123.8351         calculate D2E/DX2 analytically  !
 ! A2    A(1,2,12)             122.0962         calculate D2E/DX2 analytically  !
 ! A3    A(3,2,12)             113.9711         calculate D2E/DX2 analytically  !
 ! A4    A(2,3,4)              120.3904         calculate D2E/DX2 analytically  !
 ! A5    A(2,3,15)             117.1078         calculate D2E/DX2 analytically  !
 ! A6    A(4,3,15)             122.4212         calculate D2E/DX2 analytically  !
 ! A7    A(3,4,5)              125.7673         calculate D2E/DX2 analytically  !
 ! A8    A(3,4,14)             117.2277         calculate D2E/DX2 analytically  !
 ! A9    A(5,4,14)             116.6874         calculate D2E/DX2 analytically  !
 ! A10   A(4,5,6)              110.1669         calculate D2E/DX2 analytically  !
 ! A11   A(4,5,16)             109.7913         calculate D2E/DX2 analytically  !
 ! A12   A(4,5,17)             109.1615         calculate D2E/DX2 analytically  !
 ! A13   A(6,5,16)             110.5946         calculate D2E/DX2 analytically  !
 ! A14   A(6,5,17)             109.0642         calculate D2E/DX2 analytically  !
 ! A15   A(16,5,17)            108.0169         calculate D2E/DX2 analytically  !
 ! A16   A(5,6,7)              111.6044         calculate D2E/DX2 analytically  !
 ! A17   A(5,6,18)             110.2721         calculate D2E/DX2 analytically  !
 ! A18   A(5,6,19)             108.9778         calculate D2E/DX2 analytically  !
 ! A19   A(7,6,18)             110.1734         calculate D2E/DX2 analytically  !
 ! A20   A(7,6,19)             108.3783         calculate D2E/DX2 analytically  !
 ! A21   A(18,6,19)            107.3106         calculate D2E/DX2 analytically  !
 ! A22   A(6,7,8)              117.3727         calculate D2E/DX2 analytically  !
 ! A23   A(6,7,20)             109.2754         calculate D2E/DX2 analytically  !
 ! A24   A(6,7,21)             110.1138         calculate D2E/DX2 analytically  !
 ! A25   A(8,7,20)             106.3113         calculate D2E/DX2 analytically  !
 ! A26   A(8,7,21)             106.2192         calculate D2E/DX2 analytically  !
 ! A27   A(20,7,21)            107.0295         calculate D2E/DX2 analytically  !
 ! A28   A(7,8,9)              120.0278         calculate D2E/DX2 analytically  !
 ! A29   A(7,8,10)             118.7898         calculate D2E/DX2 analytically  !
 ! A30   A(9,8,10)             121.0764         calculate D2E/DX2 analytically  !
 ! A31   A(8,10,11)            111.7767         calculate D2E/DX2 analytically  !
 ! A32   A(8,10,14)            112.3464         calculate D2E/DX2 analytically  !
 ! A33   A(8,10,22)            108.2385         calculate D2E/DX2 analytically  !
 ! A34   A(11,10,14)           101.8485         calculate D2E/DX2 analytically  !
 ! A35   A(11,10,22)           111.8939         calculate D2E/DX2 analytically  !
 ! A36   A(14,10,22)           110.7059         calculate D2E/DX2 analytically  !
 ! A37   A(10,11,12)           102.8608         calculate D2E/DX2 analytically  !
 ! A38   A(10,11,23)           111.5784         calculate D2E/DX2 analytically  !
 ! A39   A(10,11,24)           111.3751         calculate D2E/DX2 analytically  !
 ! A40   A(12,11,23)           112.0107         calculate D2E/DX2 analytically  !
 ! A41   A(12,11,24)           109.4571         calculate D2E/DX2 analytically  !
 ! A42   A(23,11,24)           109.4277         calculate D2E/DX2 analytically  !
 ! A43   A(2,12,11)            109.461          calculate D2E/DX2 analytically  !
 ! A44   A(2,12,13)            110.4102         calculate D2E/DX2 analytically  !
 ! A45   A(2,12,25)            110.5099         calculate D2E/DX2 analytically  !
 ! A46   A(11,12,13)           103.5612         calculate D2E/DX2 analytically  !
 ! A47   A(11,12,25)           113.475          calculate D2E/DX2 analytically  !
 ! A48   A(13,12,25)           109.2156         calculate D2E/DX2 analytically  !
 ! A49   A(12,13,14)           103.417          calculate D2E/DX2 analytically  !
 ! A50   A(4,14,10)            104.6876         calculate D2E/DX2 analytically  !
 ! A51   A(4,14,13)            110.8888         calculate D2E/DX2 analytically  !
 ! A52   A(4,14,26)            113.315          calculate D2E/DX2 analytically  !
 ! A53   A(10,14,13)           105.9043         calculate D2E/DX2 analytically  !
 ! A54   A(10,14,26)           114.8201         calculate D2E/DX2 analytically  !
 ! A55   A(13,14,26)           107.0252         calculate D2E/DX2 analytically  !
 ! D1    D(1,2,3,4)           -174.2246         calculate D2E/DX2 analytically  !
 ! D2    D(1,2,3,15)             2.5896         calculate D2E/DX2 analytically  !
 ! D3    D(12,2,3,4)             2.2435         calculate D2E/DX2 analytically  !
 ! D4    D(12,2,3,15)          179.0576         calculate D2E/DX2 analytically  !
 ! D5    D(1,2,12,11)           97.2829         calculate D2E/DX2 analytically  !
 ! D6    D(1,2,12,13)         -149.3368         calculate D2E/DX2 analytically  !
 ! D7    D(1,2,12,25)          -28.3973         calculate D2E/DX2 analytically  !
 ! D8    D(3,2,12,11)          -79.2541         calculate D2E/DX2 analytically  !
 ! D9    D(3,2,12,13)           34.1262         calculate D2E/DX2 analytically  !
 ! D10   D(3,2,12,25)          155.0657         calculate D2E/DX2 analytically  !
 ! D11   D(2,3,4,5)            171.2605         calculate D2E/DX2 analytically  !
 ! D12   D(2,3,4,14)            -2.0266         calculate D2E/DX2 analytically  !
 ! D13   D(15,3,4,5)            -5.3797         calculate D2E/DX2 analytically  !
 ! D14   D(15,3,4,14)         -178.6669         calculate D2E/DX2 analytically  !
 ! D15   D(3,4,5,6)           -134.7911         calculate D2E/DX2 analytically  !
 ! D16   D(3,4,5,16)           -12.7577         calculate D2E/DX2 analytically  !
 ! D17   D(3,4,5,17)           105.4739         calculate D2E/DX2 analytically  !
 ! D18   D(14,4,5,6)            38.5283         calculate D2E/DX2 analytically  !
 ! D19   D(14,4,5,16)          160.5618         calculate D2E/DX2 analytically  !
 ! D20   D(14,4,5,17)          -81.2067         calculate D2E/DX2 analytically  !
 ! D21   D(3,4,14,10)           78.8875         calculate D2E/DX2 analytically  !
 ! D22   D(3,4,14,13)          -34.894          calculate D2E/DX2 analytically  !
 ! D23   D(3,4,14,26)         -155.2741         calculate D2E/DX2 analytically  !
 ! D24   D(5,4,14,10)          -95.0187         calculate D2E/DX2 analytically  !
 ! D25   D(5,4,14,13)          151.1998         calculate D2E/DX2 analytically  !
 ! D26   D(5,4,14,26)           30.8197         calculate D2E/DX2 analytically  !
 ! D27   D(4,5,6,7)             54.8869         calculate D2E/DX2 analytically  !
 ! D28   D(4,5,6,18)           -67.9115         calculate D2E/DX2 analytically  !
 ! D29   D(4,5,6,19)           174.5431         calculate D2E/DX2 analytically  !
 ! D30   D(16,5,6,7)           -66.6699         calculate D2E/DX2 analytically  !
 ! D31   D(16,5,6,18)          170.5316         calculate D2E/DX2 analytically  !
 ! D32   D(16,5,6,19)           52.9862         calculate D2E/DX2 analytically  !
 ! D33   D(17,5,6,7)           174.6809         calculate D2E/DX2 analytically  !
 ! D34   D(17,5,6,18)           51.8825         calculate D2E/DX2 analytically  !
 ! D35   D(17,5,6,19)          -65.6629         calculate D2E/DX2 analytically  !
 ! D36   D(5,6,7,8)            -48.7065         calculate D2E/DX2 analytically  !
 ! D37   D(5,6,7,20)          -169.7783         calculate D2E/DX2 analytically  !
 ! D38   D(5,6,7,21)            72.9326         calculate D2E/DX2 analytically  !
 ! D39   D(18,6,7,8)            74.1483         calculate D2E/DX2 analytically  !
 ! D40   D(18,6,7,20)          -46.9235         calculate D2E/DX2 analytically  !
 ! D41   D(18,6,7,21)         -164.2126         calculate D2E/DX2 analytically  !
 ! D42   D(19,6,7,8)          -168.716          calculate D2E/DX2 analytically  !
 ! D43   D(19,6,7,20)           70.2122         calculate D2E/DX2 analytically  !
 ! D44   D(19,6,7,21)          -47.0769         calculate D2E/DX2 analytically  !
 ! D45   D(6,7,8,9)            143.3187         calculate D2E/DX2 analytically  !
 ! D46   D(6,7,8,10)           -40.3845         calculate D2E/DX2 analytically  !
 ! D47   D(20,7,8,9)           -94.0773         calculate D2E/DX2 analytically  !
 ! D48   D(20,7,8,10)           82.2196         calculate D2E/DX2 analytically  !
 ! D49   D(21,7,8,9)            19.6835         calculate D2E/DX2 analytically  !
 ! D50   D(21,7,8,10)         -164.0196         calculate D2E/DX2 analytically  !
 ! D51   D(7,8,10,11)          171.4424         calculate D2E/DX2 analytically  !
 ! D52   D(7,8,10,14)           57.6589         calculate D2E/DX2 analytically  !
 ! D53   D(7,8,10,22)          -64.886          calculate D2E/DX2 analytically  !
 ! D54   D(9,8,10,11)          -12.3011         calculate D2E/DX2 analytically  !
 ! D55   D(9,8,10,14)         -126.0845         calculate D2E/DX2 analytically  !
 ! D56   D(9,8,10,22)          111.3705         calculate D2E/DX2 analytically  !
 ! D57   D(8,10,11,12)        -112.4908         calculate D2E/DX2 analytically  !
 ! D58   D(8,10,11,23)           7.7537         calculate D2E/DX2 analytically  !
 ! D59   D(8,10,11,24)         130.3625         calculate D2E/DX2 analytically  !
 ! D60   D(14,10,11,12)          7.6515         calculate D2E/DX2 analytically  !
 ! D61   D(14,10,11,23)        127.896          calculate D2E/DX2 analytically  !
 ! D62   D(14,10,11,24)       -109.4952         calculate D2E/DX2 analytically  !
 ! D63   D(22,10,11,12)        125.9237         calculate D2E/DX2 analytically  !
 ! D64   D(22,10,11,23)       -113.8318         calculate D2E/DX2 analytically  !
 ! D65   D(22,10,11,24)          8.777          calculate D2E/DX2 analytically  !
 ! D66   D(8,10,14,4)           22.9847         calculate D2E/DX2 analytically  !
 ! D67   D(8,10,14,13)         140.2401         calculate D2E/DX2 analytically  !
 ! D68   D(8,10,14,26)        -101.9065         calculate D2E/DX2 analytically  !
 ! D69   D(11,10,14,4)         -96.7568         calculate D2E/DX2 analytically  !
 ! D70   D(11,10,14,13)         20.4986         calculate D2E/DX2 analytically  !
 ! D71   D(11,10,14,26)        138.352          calculate D2E/DX2 analytically  !
 ! D72   D(22,10,14,4)         144.1248         calculate D2E/DX2 analytically  !
 ! D73   D(22,10,14,13)        -98.6198         calculate D2E/DX2 analytically  !
 ! D74   D(22,10,14,26)         19.2336         calculate D2E/DX2 analytically  !
 ! D75   D(10,11,12,2)          84.2278         calculate D2E/DX2 analytically  !
 ! D76   D(10,11,12,13)        -33.5283         calculate D2E/DX2 analytically  !
 ! D77   D(10,11,12,25)       -151.8139         calculate D2E/DX2 analytically  !
 ! D78   D(23,11,12,2)         -35.7185         calculate D2E/DX2 analytically  !
 ! D79   D(23,11,12,13)       -153.4746         calculate D2E/DX2 analytically  !
 ! D80   D(23,11,12,25)         88.2398         calculate D2E/DX2 analytically  !
 ! D81   D(24,11,12,2)        -157.2727         calculate D2E/DX2 analytically  !
 ! D82   D(24,11,12,13)         84.9712         calculate D2E/DX2 analytically  !
 ! D83   D(24,11,12,25)        -33.3144         calculate D2E/DX2 analytically  !
 ! D84   D(2,12,13,14)         -69.0548         calculate D2E/DX2 analytically  !
 ! D85   D(11,12,13,14)         48.0378         calculate D2E/DX2 analytically  !
 ! D86   D(25,12,13,14)        169.2374         calculate D2E/DX2 analytically  !
 ! D87   D(12,13,14,4)          69.7966         calculate D2E/DX2 analytically  !
 ! D88   D(12,13,14,10)        -43.2159         calculate D2E/DX2 analytically  !
 ! D89   D(12,13,14,26)       -166.1541         calculate D2E/DX2 analytically  !
 --------------------------------------------------------------------------------
 Trust Radius=3.00D-01 FncErr=1.00D-07 GrdErr=1.00D-06 EigMax=2.50D+02 EigMin=1.00D-04
 Number of steps in this run=    156 maximum allowed number of steps=    156.
 GradGradGradGradGradGradGradGradGradGradGradGradGradGradGradGradGradGrad

 Leave Link  103 at Thu Jan 29 20:30:28 2026, MaxMem=  4294967296 cpu:               0.4 elap:               0.0
 (Enter /root/g16/l202.exe)
                          Input orientation:                          
 ---------------------------------------------------------------------
 Center     Atomic      Atomic             Coordinates (Angstroms)
 Number     Number       Type             X           Y           Z
 ---------------------------------------------------------------------
      1          8           0        2.767999    0.379849    1.526818
      2          6           0        1.908917    0.433674    0.667155
      3          6           0        0.728133    1.290398    0.749462
      4          6           0       -0.233702    1.211514   -0.182054
      5          6           0       -1.561911    1.886013   -0.122459
      6          6           0       -2.671425    0.905703   -0.524282
      7          6           0       -2.634876   -0.365064    0.325477
      8          6           0       -1.297483   -1.055545    0.487897
      9          8           0       -1.008631   -1.575038    1.540909
     10          6           0       -0.367931   -1.154753   -0.722592
     11          6           0        1.018027   -1.690295   -0.334269
     12          6           0        1.937581   -0.467282   -0.567115
     13          8           0        1.345087    0.187398   -1.668286
     14          6           0       -0.014807    0.248650   -1.318211
     15          1           0        0.648450    1.937395    1.610960
     16          1           0       -1.735842    2.271139    0.883366
     17          1           0       -1.565768    2.733027   -0.814364
     18          1           0       -2.587984    0.653635   -1.580966
     19          1           0       -3.639431    1.387481   -0.381013
     20          1           0       -3.313743   -1.107438   -0.105413
     21          1           0       -2.993074   -0.152060    1.335636
     22          1           0       -0.851229   -1.782667   -1.474112
     23          1           0        1.041515   -2.027440    0.701241
     24          1           0        1.325763   -2.504738   -0.987184
     25          1           0        2.963821   -0.737089   -0.819559
     26          1           0       -0.564419    0.513909   -2.219786
 ---------------------------------------------------------------------
                    Distance matrix (angstroms):
                    1          2          3          4          5
     1  O    0.000000
     2  C    1.216527   0.000000
     3  C    2.365255   1.461165   0.000000
     4  C    3.552762   2.432491   1.341295   0.000000
     5  C    4.872039   3.844403   2.521767   1.490853   0.000000
     6  C    5.837025   4.756245   3.650672   2.480551   1.534109
     7  C    5.584727   4.626098   3.772287   2.916989   2.533624
     8  C    4.434846   3.539903   3.110464   2.592301   3.015829
     9  O    4.252613   3.648350   3.442885   3.366599   3.879663
    10  C    4.153180   3.104599   3.057297   2.430930   3.321447
    11  C    3.288091   2.511529   3.184814   3.163936   4.414853
    12  C    2.406611   1.528386   2.507106   2.771480   4.240539
    13  O    3.502914   2.415128   2.728140   2.397973   3.704796
    14  C    3.981886   2.770673   2.431558   1.505283   2.550356
    15  H    2.631638   2.177320   1.080339   2.126028   2.809462
    16  H    4.927027   4.087456   2.655364   2.124700   1.090989
    17  H    5.458948   4.422144   3.128692   2.118777   1.093700
    18  H    6.198373   5.032351   4.102803   2.794786   2.167677
    19  H    6.760939   5.726480   4.512539   3.416070   2.152085
    20  H    6.470223   5.499824   4.776734   3.856172   3.468422
    21  H    5.788734   4.981914   4.033816   3.431742   2.885829
    22  H    5.175023   4.137100   4.108819   3.319017   3.973821
    23  H    3.075283   2.609718   3.332954   3.591269   4.771942
    24  H    4.089143   3.422159   4.216178   4.109829   5.325891
    25  H    2.606028   2.166524   3.401592   3.798371   5.277203
    26  H    5.015976   3.802402   3.330174   2.179077   2.697489
                    6          7          8          9         10
     6  C    0.000000
     7  C    1.529142   0.000000
     8  C    2.599753   1.513858   0.000000
     9  O    3.630974   2.363468   1.209190   0.000000
    10  C    3.096916   2.619370   1.529443   2.389680   0.000000
    11  C    4.515237   3.941473   2.537805   2.763498   1.535734
    12  C    4.809351   4.659886   3.453223   3.788278   2.410846
    13  O    4.237578   4.485578   3.630043   4.352597   2.372791
    14  C    2.849502   3.153271   2.570645   3.533849   1.564928
    15  H    4.079855   4.211177   3.742408   3.884328   4.004981
    16  H    2.172833   2.840610   3.378666   3.969165   4.023309
    17  H    2.155397   3.469927   4.015114   4.941369   4.069160
    18  H    1.089532   2.162053   2.977732   4.148185   2.989266
    19  H    1.090721   2.140017   3.494009   4.403567   4.157204
    20  H    2.154243   1.094370   2.102382   2.870986   3.010142
    21  H    2.163704   1.092747   2.099994   2.450513   3.483256
    22  H    3.382695   2.903363   2.139470   3.026258   1.092078
    23  H    4.887858   4.052227   2.541851   2.261152   2.185273
    24  H    5.274741   4.689131   3.340276   3.564406   2.181987
    25  H    5.877240   5.726685   4.468732   4.696205   3.359228
    26  H    2.732711   3.396727   3.214361   4.324794   2.250473
                   11         12         13         14         15
    11  C    0.000000
    12  C    1.547759   0.000000
    13  O    2.326435   1.411466   0.000000
    14  C    2.407155   2.211001   1.405566   0.000000
    15  H    4.132873   3.491180   3.781699   3.445550   0.000000
    16  H    4.975881   4.805922   4.510546   3.449546   2.515080
    17  H    5.145120   4.751481   3.960112   2.971779   3.379051
    18  H    4.477899   4.771278   3.961571   2.618070   4.723445
    19  H    5.582724   5.880293   5.286084   3.913205   4.759861
    20  H    4.376794   5.310308   5.081718   3.767337   5.283551
    21  H    4.609087   5.294449   5.287572   4.009183   4.207413
    22  H    2.191322   3.214085   2.956799   2.202307   5.060194
    23  H    1.089265   2.201307   3.257656   3.220961   4.086809
    24  H    1.088263   2.168411   2.777025   3.080236   5.190534
    25  H    2.220410   1.090729   2.048247   3.176879   4.291996
    26  H    3.304213   3.155006   2.014193   1.088702   4.262860
                   16         17         18         19         20
    16  H    0.000000
    17  H    1.767640   0.000000
    18  H    3.068451   2.440588   0.000000
    19  H    2.450133   2.509654   1.756120   0.000000
    20  H    3.857750   4.278691   2.409432   2.531136   0.000000
    21  H    2.767142   3.870843   3.052836   2.394754   1.758465
    22  H    4.772168   4.619234   2.993878   4.361052   2.897110
    23  H    5.121002   5.635337   5.056668   5.894422   4.523866
    24  H    5.973389   5.985399   5.064120   6.337978   4.924934
    25  H    5.834057   5.706041   5.773767   6.950471   6.328899
    26  H    3.753617   2.811120   2.126601   3.687806   3.828592
                   21         22         23         24         25
    21  H    0.000000
    22  H    3.891152   0.000000
    23  H    4.494154   2.893882   0.000000
    24  H    5.439020   2.344734   1.777467   0.000000
    25  H    6.361739   4.009523   2.770035   2.415763   0.000000
    26  H    4.356938   2.431573   4.191643   3.768862   3.996762
                   26
    26  H    0.000000
 Stoichiometry    C11H12O3
 Framework group  C1[X(C11H12O3)]
 Deg. of freedom    72
 Full point group                 C1      NOp   1
 Largest Abelian subgroup         C1      NOp   1
 Largest concise Abelian subgroup C1      NOp   1
                         Standard orientation:                         
 ---------------------------------------------------------------------
 Center     Atomic      Atomic             Coordinates (Angstroms)
 Number     Number       Type             X           Y           Z
 ---------------------------------------------------------------------
      1          8           0        2.855074   -0.377863   -1.483745
      2          6           0        1.950258   -0.494487   -0.678981
      3          6           0        0.702679   -1.203440   -0.954544
      4          6           0       -0.296098   -1.192297   -0.059339
      5          6           0       -1.674965   -1.712058   -0.285647
      6          6           0       -2.710750   -0.711406    0.242876
      7          6           0       -2.514075    0.677211   -0.366498
      8          6           0       -1.112847    1.250101   -0.355383
      9          8           0       -0.722615    1.912718   -1.288549
     10          6           0       -0.243663    1.046471    0.886490
     11          6           0        1.203794    1.501773    0.649747
     12          6           0        1.994990    0.172311    0.695553
     13          8           0        1.287981   -0.601178    1.641116
     14          6           0       -0.051369   -0.466627    1.236573
     15          1           0        0.610465   -1.680752   -1.919325
     16          1           0       -1.829498   -1.898499   -1.349421
     17          1           0       -1.792324   -2.661336    0.244709
     18          1           0       -2.660971   -0.655231    1.329820
     19          1           0       -3.709490   -1.063352   -0.018514
     20          1           0       -3.144717    1.397202    0.164114
     21          1           0       -2.836015    0.678366   -1.410744
     22          1           0       -0.707210    1.579595    1.719279
     23          1           0        1.312665    2.008827   -0.308137
     24          1           0        1.549050    2.156748    1.447320
     25          1           0        3.026625    0.291914    1.028893
     26          1           0       -0.669826   -0.828212    2.056352
 ---------------------------------------------------------------------
 Rotational constants (GHZ):           1.1850267           0.6825493           0.6321978
 Leave Link  202 at Thu Jan 29 20:30:28 2026, MaxMem=  4294967296 cpu:               0.3 elap:               0.0
 (Enter /root/g16/l301.exe)
 Standard basis: def2SVP (5D, 7F)
 Ernie: Thresh=  0.10000D-02 Tol=  0.10000D-05 Strict=F.
 There are   270 symmetry adapted cartesian basis functions of A   symmetry.
 There are   256 symmetry adapted basis functions of A   symmetry.
   256 basis functions,   434 primitive gaussians,   270 cartesian basis functions
    51 alpha electrons       51 beta electrons
       nuclear repulsion energy       956.4638881812 Hartrees.
 IExCor=  402 DFT=T Ex+Corr=B3LYP ExCW=0 ScaHFX=  0.200000
 ScaDFX=  0.800000  0.720000  1.000000  0.810000 ScalE2=  1.000000  1.000000
 IRadAn=      5 IRanWt=     -1 IRanGd=            0 ICorTp=0 IEmpDi=141
 NAtoms=   26 NActive=   26 NUniq=   26 SFac= 1.00D+00 NAtFMM=   60 NAOKFM=F Big=F
 Integral buffers will be    131072 words long.
 Raffenetti 2 integral format.
 Two-electron integral symmetry is turned on.
 R6Disp:  Grimme-D3(BJ) Dispersion energy=       -0.0582749865 Hartrees.
 Nuclear repulsion after empirical dispersion term =      956.4056131948 Hartrees.
 Force inversion solution in PCM.
 ------------------------------------------------------------------------------
 Polarizable Continuum Model (PCM)
 =================================
 Model                : PCM.
 Atomic radii         : UFF (Universal Force Field).
 Polarization charges : Total charges.
 Charge compensation  : None.
 Solution method      : Matrix inversion.
 Cavity type          : Scaled VdW (van der Waals Surface) (Alpha=1.100).
 Cavity algorithm     : GePol (No added spheres)
                        Default sphere list used, NSphG=   26.
                        Lebedev-Laikov grids with approx.  5.0 points / Ang**2.
                        Smoothing algorithm: York/Karplus (Gamma=1.0000).
                        Polarization charges: spherical gaussians, with
                                              point-specific exponents (IZeta= 3).
                        Self-potential: point-specific (ISelfS= 7).
                        Self-field    : sphere-specific E.n sum rule (ISelfD= 2).
 1st derivatives      : Analytical E(r).r(x)/FMM algorithm (CHGder, D1EAlg=3).
                        Cavity 1st derivative terms included.
 2nd derivatives      : Analytical E(r).r(xy)/FMM algorithm (CHGder, D2EAlg=3).
                        Cavity 2nd derivative terms included.
 Solvent              : Acetone, Eps=  20.493000 Eps(inf)=   1.846337
 ------------------------------------------------------------------------------
 GePol: Number of generator spheres                  =      26
 GePol: Total number of spheres                      =      26
 GePol: Number of exposed spheres                    =      26 (100.00%)
 GePol: Number of points                             =    1815
 GePol: Average weight of points                     =       0.13
 GePol: Minimum weight of points                     =   0.49D-11
 GePol: Maximum weight of points                     =    0.20577
 GePol: Number of points with low weight             =     120
 GePol: Fraction of low-weight points (<1% of avg)   =       6.61%
 GePol: Cavity surface area                          =    235.114 Ang**2
 GePol: Cavity volume                                =    255.347 Ang**3
 Leave Link  301 at Thu Jan 29 20:30:28 2026, MaxMem=  4294967296 cpu:               0.4 elap:               0.0
 (Enter /root/g16/l302.exe)
 NPDir=0 NMtPBC=     1 NCelOv=     1 NCel=       1 NClECP=     1 NCelD=      1
         NCelK=      1 NCelE2=     1 NClLst=     1 CellRange=     0.0.
 One-electron integrals computed using PRISM.
 One-electron integral symmetry used in STVInt
   1 Symmetry operations used in ECPInt.
 ECPInt:  NShTT=    7260 NPrTT=   26324 LenC2=    7150 LenP2D=   19995.
 LDataN:  DoStor=T MaxTD1= 4 Len=   56
 NBasis=   256 RedAO= T EigKep=  3.17D-04  NBF=   256
 NBsUse=   256 1.00D-06 EigRej= -1.00D+00 NBFU=   256
 Precomputing XC quadrature grid using
 IXCGrd= 4 IRadAn=           5 IRanWt=          -1 IRanGd=           0 AccXCQ= 0.00D+00.
 Generated NRdTot=       0 NPtTot=           0 NUsed=           0 NTot=          32
 NSgBfM=   270   270   270   270   270 MxSgAt=    26 MxSgA2=    26.
 Leave Link  302 at Thu Jan 29 20:30:29 2026, MaxMem=  4294967296 cpu:               1.9 elap:               0.1
 (Enter /root/g16/l303.exe)
 DipDrv:  MaxL=1.
 Leave Link  303 at Thu Jan 29 20:30:29 2026, MaxMem=  4294967296 cpu:               0.2 elap:               0.0
 (Enter /root/g16/l401.exe)
 ExpMin= 1.22D-01 ExpMax= 2.27D+03 ExpMxC= 3.41D+02 IAcc=3 IRadAn=         5 AccDes= 0.00D+00
 Harris functional with IExCor=  402 and IRadAn=       5 diagonalized for initial guess.
 HarFok:  IExCor=  402 AccDes= 0.00D+00 IRadAn=         5 IDoV= 1 UseB2=F ITyADJ=14
 ICtDFT=  3500011 ScaDFX=  1.000000  1.000000  1.000000  1.000000
 FoFCou: FMM=F IPFlag=           0 FMFlag=      100000 FMFlg1=           0
         NFxFlg=           0 DoJE=T BraDBF=F KetDBF=T FulRan=T
         wScrn=  0.000000 ICntrl=       500 IOpCl=  0 I1Cent=   200000004 NGrid=           0
         NMat0=    1 NMatS0=      1 NMatT0=    0 NMatD0=    1 NMtDS0=    0 NMtDT0=    0
 Petite list used in FoFCou.
 Harris En= -651.603684715519    
 JPrj=0 DoOrth=F DoCkMO=F.
 Leave Link  401 at Thu Jan 29 20:30:29 2026, MaxMem=  4294967296 cpu:               7.9 elap:               0.5
 (Enter /root/g16/l502.exe)
 Integral symmetry usage will be decided dynamically.
 Closed shell SCF:
 Using DIIS extrapolation, IDIIS=  1040.
 NGot=  4294967296 LenX=  4294814202 LenY=  4294740861
 Requested convergence on RMS density matrix=1.00D-08 within 128 cycles.
 Requested convergence on MAX density matrix=1.00D-06.
 Requested convergence on             energy=1.00D-06.
 No special actions if energy rises.
 Fock matrices will be formed incrementally for  20 cycles.

 Cycle   1  Pass 1  IDiag  1:
 FoFJK:  IHMeth= 1 ICntrl=       0 DoSepK=F KAlg= 0 I1Cent=           0 FoldK=F
 IRaf= 960000000 NMat=       1 IRICut=       1 DoRegI=T DoRafI=F ISym2E= 0 IDoP0=0 IntGTp=1.
 FoFCou: FMM=F IPFlag=           0 FMFlag=      100000 FMFlg1=           0
         NFxFlg=           0 DoJE=F BraDBF=F KetDBF=F FulRan=T
         wScrn=  0.000000 ICntrl=         0 IOpCl=  0 I1Cent=           0 NGrid=           0
         NMat0=    1 NMatS0=      1 NMatT0=    0 NMatD0=    1 NMtDS0=    0 NMtDT0=    0
 Symmetry not used in FoFCou.
 Inv3:  Mode=1 IEnd=     9882675.
 Iteration    1 A*A^-1 deviation from unit magnitude is 2.55D-15 for    413.
 Iteration    1 A*A^-1 deviation from orthogonality  is 2.00D-15 for   1490     14.
 Iteration    1 A^-1*A deviation from unit magnitude is 2.44D-15 for    724.
 Iteration    1 A^-1*A deviation from orthogonality  is 1.75D-15 for   1381    602.
 E= -651.335303728944    
 DIIS: error= 2.09D-02 at cycle   1 NSaved=   1.
 NSaved= 1 IEnMin= 1 EnMin= -651.335303728944     IErMin= 1 ErrMin= 2.09D-02
 ErrMax= 2.09D-02  0.00D+00 EMaxC= 1.00D-01 BMatC= 3.07D-01 BMatP= 3.07D-01
 IDIUse=3 WtCom= 7.91D-01 WtEn= 2.09D-01
 Coeff-Com:  0.100D+01
 Coeff-En:   0.100D+01
 Coeff:      0.100D+01
 Gap=     0.144 Goal=   None    Shift=    0.000
 GapD=    0.144 DampG=1.000 DampE=0.500 DampFc=0.5000 IDamp=-1.
 Damping current iteration by 5.00D-01
 RMSDP=7.33D-03 MaxDP=3.59D-01              OVMax= 1.74D-01

 Cycle   2  Pass 1  IDiag  1:
 RMSU=  3.66D-03    CP:  9.91D-01
 E= -651.442708305524     Delta-E=       -0.107404576581 Rises=F Damp=T
 DIIS: error= 7.03D-03 at cycle   2 NSaved=   2.
 NSaved= 2 IEnMin= 2 EnMin= -651.442708305524     IErMin= 2 ErrMin= 7.03D-03
 ErrMax= 7.03D-03  0.00D+00 EMaxC= 1.00D-01 BMatC= 3.38D-02 BMatP= 3.07D-01
 IDIUse=3 WtCom= 9.30D-01 WtEn= 7.03D-02
 Coeff-Com:  0.162D+00 0.838D+00
 Coeff-En:   0.226D+00 0.774D+00
 Coeff:      0.166D+00 0.834D+00
 Gap=     0.192 Goal=   None    Shift=    0.000
 RMSDP=2.24D-03 MaxDP=1.23D-01 DE=-1.07D-01 OVMax= 1.40D-01

 Cycle   3  Pass 1  IDiag  1:
 RMSU=  2.10D-03    CP:  9.65D-01  8.55D-01
 E= -651.590769643697     Delta-E=       -0.148061338172 Rises=F Damp=F
 DIIS: error= 8.66D-03 at cycle   3 NSaved=   3.
 NSaved= 3 IEnMin= 3 EnMin= -651.590769643697     IErMin= 2 ErrMin= 7.03D-03
 ErrMax= 8.66D-03  0.00D+00 EMaxC= 1.00D-01 BMatC= 3.69D-02 BMatP= 3.38D-02
 IDIUse=3 WtCom= 9.13D-01 WtEn= 8.66D-02
 Coeff-Com:  0.277D-01 0.510D+00 0.462D+00
 Coeff-En:   0.000D+00 0.000D+00 0.100D+01
 Coeff:      0.253D-01 0.466D+00 0.509D+00
 Gap=     0.175 Goal=   None    Shift=    0.000
 RMSDP=1.32D-03 MaxDP=4.80D-02 DE=-1.48D-01 OVMax= 6.22D-02

 Cycle   4  Pass 1  IDiag  1:
 RMSU=  9.35D-04    CP:  9.76D-01  9.94D-01  6.51D-01
 E= -651.617579134984     Delta-E=       -0.026809491287 Rises=F Damp=F
 DIIS: error= 3.38D-03 at cycle   4 NSaved=   4.
 NSaved= 4 IEnMin= 4 EnMin= -651.617579134984     IErMin= 4 ErrMin= 3.38D-03
 ErrMax= 3.38D-03  0.00D+00 EMaxC= 1.00D-01 BMatC= 6.26D-03 BMatP= 3.38D-02
 IDIUse=3 WtCom= 9.66D-01 WtEn= 3.38D-02
 Coeff-Com:  0.243D-02 0.128D+00 0.311D+00 0.559D+00
 Coeff-En:   0.000D+00 0.000D+00 0.172D+00 0.828D+00
 Coeff:      0.235D-02 0.123D+00 0.306D+00 0.568D+00
 Gap=     0.176 Goal=   None    Shift=    0.000
 RMSDP=5.64D-04 MaxDP=2.42D-02 DE=-2.68D-02 OVMax= 2.27D-02

 Cycle   5  Pass 1  IDiag  1:
 RMSU=  2.21D-04    CP:  9.72D-01  9.25D-01  7.34D-01  5.63D-01
 E= -651.622854267525     Delta-E=       -0.005275132541 Rises=F Damp=F
 DIIS: error= 4.59D-04 at cycle   5 NSaved=   5.
 NSaved= 5 IEnMin= 5 EnMin= -651.622854267525     IErMin= 5 ErrMin= 4.59D-04
 ErrMax= 4.59D-04  0.00D+00 EMaxC= 1.00D-01 BMatC= 1.54D-04 BMatP= 6.26D-03
 IDIUse=3 WtCom= 9.95D-01 WtEn= 4.59D-03
 Coeff-Com: -0.516D-03 0.201D-01 0.100D+00 0.246D+00 0.634D+00
 Coeff-En:   0.000D+00 0.000D+00 0.000D+00 0.000D+00 0.100D+01
 Coeff:     -0.513D-03 0.200D-01 0.996D-01 0.245D+00 0.636D+00
 Gap=     0.174 Goal=   None    Shift=    0.000
 RMSDP=9.60D-05 MaxDP=3.76D-03 DE=-5.28D-03 OVMax= 9.15D-03

 Cycle   6  Pass 1  IDiag  1:
 RMSU=  5.92D-05    CP:  9.72D-01  9.32D-01  7.35D-01  6.09D-01  7.47D-01
 E= -651.622963257370     Delta-E=       -0.000108989845 Rises=F Damp=F
 DIIS: error= 2.60D-04 at cycle   6 NSaved=   6.
 NSaved= 6 IEnMin= 6 EnMin= -651.622963257370     IErMin= 6 ErrMin= 2.60D-04
 ErrMax= 2.60D-04  0.00D+00 EMaxC= 1.00D-01 BMatC= 4.50D-05 BMatP= 1.54D-04
 IDIUse=3 WtCom= 9.97D-01 WtEn= 2.60D-03
 Coeff-Com: -0.421D-03-0.282D-03 0.320D-01 0.965D-01 0.404D+00 0.469D+00
 Coeff-En:   0.000D+00 0.000D+00 0.000D+00 0.000D+00 0.236D+00 0.764D+00
 Coeff:     -0.420D-03-0.281D-03 0.320D-01 0.963D-01 0.403D+00 0.469D+00
 Gap=     0.175 Goal=   None    Shift=    0.000
 RMSDP=3.30D-05 MaxDP=1.61D-03 DE=-1.09D-04 OVMax= 3.82D-03

 Cycle   7  Pass 1  IDiag  1:
 RMSU=  1.39D-05    CP:  9.72D-01  9.33D-01  7.36D-01  6.06D-01  7.75D-01
                    CP:  5.10D-01
 E= -651.623008843302     Delta-E=       -0.000045585932 Rises=F Damp=F
 DIIS: error= 4.22D-05 at cycle   7 NSaved=   7.
 NSaved= 7 IEnMin= 7 EnMin= -651.623008843302     IErMin= 7 ErrMin= 4.22D-05
 ErrMax= 4.22D-05  0.00D+00 EMaxC= 1.00D-01 BMatC= 1.25D-06 BMatP= 4.50D-05
 IDIUse=1 WtCom= 1.00D+00 WtEn= 0.00D+00
 Coeff-Com: -0.131D-03-0.134D-02 0.987D-02 0.318D-01 0.160D+00 0.227D+00
 Coeff-Com:  0.573D+00
 Coeff:     -0.131D-03-0.134D-02 0.987D-02 0.318D-01 0.160D+00 0.227D+00
 Coeff:      0.573D+00
 Gap=     0.175 Goal=   None    Shift=    0.000
 RMSDP=6.66D-06 MaxDP=2.09D-04 DE=-4.56D-05 OVMax= 3.49D-04

 Cycle   8  Pass 1  IDiag  1:
 RMSU=  4.41D-06    CP:  9.72D-01  9.32D-01  7.37D-01  6.08D-01  7.74D-01
                    CP:  5.14D-01  6.93D-01
 E= -651.623009941215     Delta-E=       -0.000001097913 Rises=F Damp=F
 DIIS: error= 1.05D-05 at cycle   8 NSaved=   8.
 NSaved= 8 IEnMin= 8 EnMin= -651.623009941215     IErMin= 8 ErrMin= 1.05D-05
 ErrMax= 1.05D-05  0.00D+00 EMaxC= 1.00D-01 BMatC= 1.01D-07 BMatP= 1.25D-06
 IDIUse=1 WtCom= 1.00D+00 WtEn= 0.00D+00
 Coeff-Com:  0.147D-04-0.672D-03 0.170D-02 0.560D-02 0.375D-01 0.608D-01
 Coeff-Com:  0.261D+00 0.634D+00
 Coeff:      0.147D-04-0.672D-03 0.170D-02 0.560D-02 0.375D-01 0.608D-01
 Coeff:      0.261D+00 0.634D+00
 Gap=     0.175 Goal=   None    Shift=    0.000
 RMSDP=2.27D-06 MaxDP=1.36D-04 DE=-1.10D-06 OVMax= 5.60D-05

 Cycle   9  Pass 1  IDiag  1:
 RMSU=  1.43D-06    CP:  9.72D-01  9.32D-01  7.37D-01  6.07D-01  7.78D-01
                    CP:  5.23D-01  7.21D-01  7.37D-01
 E= -651.623010019024     Delta-E=       -0.000000077809 Rises=F Damp=F
 DIIS: error= 5.83D-06 at cycle   9 NSaved=   9.
 NSaved= 9 IEnMin= 9 EnMin= -651.623010019024     IErMin= 9 ErrMin= 5.83D-06
 ErrMax= 5.83D-06  0.00D+00 EMaxC= 1.00D-01 BMatC= 1.57D-08 BMatP= 1.01D-07
 IDIUse=1 WtCom= 1.00D+00 WtEn= 0.00D+00
 Coeff-Com:  0.233D-04-0.293D-03 0.278D-03 0.826D-03 0.967D-02 0.166D-01
 Coeff-Com:  0.101D+00 0.354D+00 0.518D+00
 Coeff:      0.233D-04-0.293D-03 0.278D-03 0.826D-03 0.967D-02 0.166D-01
 Coeff:      0.101D+00 0.354D+00 0.518D+00
 Gap=     0.175 Goal=   None    Shift=    0.000
 RMSDP=7.55D-07 MaxDP=3.50D-05 DE=-7.78D-08 OVMax= 2.60D-05

 Cycle  10  Pass 1  IDiag  1:
 RMSU=  4.94D-07    CP:  9.72D-01  9.32D-01  7.37D-01  6.07D-01  7.78D-01
                    CP:  5.22D-01  7.27D-01  7.83D-01  6.64D-01
 E= -651.623010029468     Delta-E=       -0.000000010444 Rises=F Damp=F
 DIIS: error= 2.88D-06 at cycle  10 NSaved=  10.
 NSaved=10 IEnMin=10 EnMin= -651.623010029468     IErMin=10 ErrMin= 2.88D-06
 ErrMax= 2.88D-06  0.00D+00 EMaxC= 1.00D-01 BMatC= 2.44D-09 BMatP= 1.57D-08
 IDIUse=1 WtCom= 1.00D+00 WtEn= 0.00D+00
 Coeff-Com:  0.148D-04-0.719D-04-0.110D-03-0.469D-03-0.287D-03-0.495D-03
 Coeff-Com:  0.182D-01 0.110D+00 0.315D+00 0.558D+00
 Coeff:      0.148D-04-0.719D-04-0.110D-03-0.469D-03-0.287D-03-0.495D-03
 Coeff:      0.182D-01 0.110D+00 0.315D+00 0.558D+00
 Gap=     0.175 Goal=   None    Shift=    0.000
 RMSDP=3.02D-07 MaxDP=1.40D-05 DE=-1.04D-08 OVMax= 1.04D-05

 Cycle  11  Pass 1  IDiag  1:
 RMSU=  1.75D-07    CP:  9.72D-01  9.32D-01  7.37D-01  6.07D-01  7.78D-01
                    CP:  5.22D-01  7.29D-01  7.95D-01  7.12D-01  6.09D-01
 E= -651.623010031360     Delta-E=       -0.000000001892 Rises=F Damp=F
 DIIS: error= 6.17D-07 at cycle  11 NSaved=  11.
 NSaved=11 IEnMin=11 EnMin= -651.623010031360     IErMin=11 ErrMin= 6.17D-07
 ErrMax= 6.17D-07  0.00D+00 EMaxC= 1.00D-01 BMatC= 1.90D-10 BMatP= 2.44D-09
 IDIUse=1 WtCom= 1.00D+00 WtEn= 0.00D+00
 Coeff-Com:  0.655D-05-0.140D-04-0.766D-04-0.316D-03-0.903D-03-0.179D-02
 Coeff-Com:  0.104D-02 0.270D-01 0.120D+00 0.297D+00 0.558D+00
 Coeff:      0.655D-05-0.140D-04-0.766D-04-0.316D-03-0.903D-03-0.179D-02
 Coeff:      0.104D-02 0.270D-01 0.120D+00 0.297D+00 0.558D+00
 Gap=     0.175 Goal=   None    Shift=    0.000
 RMSDP=8.34D-08 MaxDP=3.47D-06 DE=-1.89D-09 OVMax= 2.73D-06

 Cycle  12  Pass 1  IDiag  1:
 RMSU=  5.64D-08    CP:  9.72D-01  9.32D-01  7.37D-01  6.07D-01  7.78D-01
                    CP:  5.21D-01  7.30D-01  8.00D-01  7.19D-01  6.72D-01
                    CP:  7.80D-01
 E= -651.623010031496     Delta-E=       -0.000000000136 Rises=F Damp=F
 DIIS: error= 1.93D-07 at cycle  12 NSaved=  12.
 NSaved=12 IEnMin=12 EnMin= -651.623010031496     IErMin=12 ErrMin= 1.93D-07
 ErrMax= 1.93D-07  0.00D+00 EMaxC= 1.00D-01 BMatC= 1.87D-11 BMatP= 1.90D-10
 IDIUse=1 WtCom= 1.00D+00 WtEn= 0.00D+00
 Coeff-Com:  0.143D-05 0.133D-05-0.223D-04-0.984D-04-0.392D-03-0.895D-03
 Coeff-Com: -0.174D-02-0.132D-02 0.188D-01 0.803D-01 0.282D+00 0.623D+00
 Coeff:      0.143D-05 0.133D-05-0.223D-04-0.984D-04-0.392D-03-0.895D-03
 Coeff:     -0.174D-02-0.132D-02 0.188D-01 0.803D-01 0.282D+00 0.623D+00
 Gap=     0.175 Goal=   None    Shift=    0.000
 RMSDP=2.67D-08 MaxDP=8.68D-07 DE=-1.36D-10 OVMax= 7.79D-07

 Cycle  13  Pass 1  IDiag  1:
 RMSU=  1.51D-08    CP:  9.72D-01  9.32D-01  7.37D-01  6.07D-01  7.78D-01
                    CP:  5.21D-01  7.30D-01  8.00D-01  7.25D-01  6.86D-01
                    CP:  8.07D-01  7.92D-01
 E= -651.623010031522     Delta-E=       -0.000000000026 Rises=F Damp=F
 DIIS: error= 3.64D-08 at cycle  13 NSaved=  13.
 NSaved=13 IEnMin=13 EnMin= -651.623010031522     IErMin=13 ErrMin= 3.64D-08
 ErrMax= 3.64D-08  0.00D+00 EMaxC= 1.00D-01 BMatC= 1.29D-12 BMatP= 1.87D-11
 IDIUse=1 WtCom= 1.00D+00 WtEn= 0.00D+00
 Coeff-Com:  0.318D-06 0.116D-05-0.421D-05-0.233D-04-0.104D-03-0.289D-03
 Coeff-Com: -0.730D-03-0.220D-02 0.943D-03 0.177D-01 0.908D-01 0.287D+00
 Coeff-Com:  0.607D+00
 Coeff:      0.318D-06 0.116D-05-0.421D-05-0.233D-04-0.104D-03-0.289D-03
 Coeff:     -0.730D-03-0.220D-02 0.943D-03 0.177D-01 0.908D-01 0.287D+00
 Coeff:      0.607D+00
 Gap=     0.175 Goal=   None    Shift=    0.000
 RMSDP=7.02D-09 MaxDP=2.18D-07 DE=-2.57D-11 OVMax= 2.69D-07

 Error on total polarization charges =  0.00873
 SCF Done:  E(RB3LYP) =  -651.623010032     A.U. after   13 cycles
            NFock= 13  Conv=0.70D-08     -V/T= 2.0094
 KE= 6.455405268495D+02 PE=-3.430040875092D+03 EE= 1.176471725017D+03
 Leave Link  502 at Thu Jan 29 20:30:47 2026, MaxMem=  4294967296 cpu:             277.1 elap:              17.4
 (Enter /root/g16/l801.exe)
 DoSCS=F DFT=T ScalE2(SS,OS)=  1.000000  1.000000
 Range of M.O.s used for correlation:     1   256
 NBasis=   256 NAE=    51 NBE=    51 NFC=     0 NFV=     0
 NROrb=    256 NOA=    51 NOB=    51 NVA=   205 NVB=   205
 Leave Link  801 at Thu Jan 29 20:30:47 2026, MaxMem=  4294967296 cpu:               0.1 elap:               0.0
 (Enter /root/g16/l1101.exe)
 Using compressed storage, NAtomX=    26.
 Will process     27 centers per pass.
   1 Symmetry operations used in ECPInt.
 ECPInt:  NShTT=    7260 NPrTT=   26324 LenC2=    7150 LenP2D=   19995.
 LDataN:  DoStor=T MaxTD1= 5 Len=  102
 R6Disp: Adding Grimme-D3(BJ) dispersion energy 1st derivatives to the gradient.
 Leave Link 1101 at Thu Jan 29 20:30:47 2026, MaxMem=  4294967296 cpu:               3.3 elap:               0.2
 (Enter /root/g16/l1102.exe)
 Symmetrizing basis deriv contribution to polar:
 IMax=3 JMax=2 DiffMx= 0.00D+00
 Leave Link 1102 at Thu Jan 29 20:30:47 2026, MaxMem=  4294967296 cpu:               0.2 elap:               0.0
 (Enter /root/g16/l1110.exe)
 Forming Gx(P) for the SCF density, NAtomX=    26.
 Integral derivatives from FoFJK, PRISM(SPDF).
 Do as many integral derivatives as possible in FoFJK.
 G2DrvN: MDV=    4294965288.
 G2DrvN: will do    27 centers at a time, making    1 passes.
 Calling FoFCou, ICntrl=  3107 FMM=F I1Cent=   0 AccDes= 0.00D+00.
 FoFJK:  IHMeth= 1 ICntrl=    3107 DoSepK=F KAlg= 0 I1Cent=           0 FoldK=F
 IRaf=         0 NMat=       1 IRICut=       1 DoRegI=T DoRafI=F ISym2E= 0 IDoP0=0 IntGTp=1.
 FoFCou: FMM=F IPFlag=           0 FMFlag=      100000 FMFlg1=           0
         NFxFlg=           0 DoJE=F BraDBF=F KetDBF=F FulRan=T
         wScrn=  0.000000 ICntrl=      3107 IOpCl=  0 I1Cent=           0 NGrid=           0
         NMat0=    1 NMatS0=      1 NMatT0=    0 NMatD0=    1 NMtDS0=    0 NMtDT0=    0
 Symmetry not used in FoFCou.
 NEqPCM:  Using equilibrium solvation (IEInf=0, Eps=  20.4930, EpsInf=   1.8463)
 G2PCM: DoFxE=T DoFxN=T DoGrad=T DoDP/DQ/DG/TGxP=FFFF NFrqRd=   0 IEInf=0 SqF1=F DoCFld=F IF1Alg=4.
 GePol: Maximum number of non-zero 1st derivatives   =     222
 End of G2Drv F.D. properties file   721 does not exist.
 End of G2Drv F.D. properties file   722 does not exist.
 End of G2Drv F.D. properties file   788 does not exist.
 Leave Link 1110 at Thu Jan 29 20:31:12 2026, MaxMem=  4294967296 cpu:             406.8 elap:              25.5
 (Enter /root/g16/l1002.exe)
 Minotr:  Closed shell wavefunction.
          IDoAtm=11111111111111111111111111
 NEqPCM:  Using equilibrium solvation (IEInf=0, Eps=  20.4930, EpsInf=   1.8463)
          Direct CPHF calculation.
          Differentiating once with respect to nuclear coordinates.
          Requested convergence is 1.0D-08 RMS, and 1.0D-07 maximum.
          Secondary convergence is 1.0D-12 RMS, and 1.0D-12 maximum.
          NewPWx=T KeepS1=F KeepF1=F KeepIn=T MapXYZ=F SortEE=F KeepMc=T.
         7770 words used for storage of precomputed grid.
 Keep R1 ints in memory in canonical form, NReq=558668842.
 FoFCou: FMM=F IPFlag=           0 FMFlag=           0 FMFlg1=           0
         NFxFlg=           0 DoJE=F BraDBF=F KetDBF=F FulRan=T
         wScrn=  0.000000 ICntrl=       600 IOpCl=  0 I1Cent=           0 NGrid=           0
         NMat0=    1 NMatS0=  32896 NMatT0=    0 NMatD0=    1 NMtDS0=    0 NMtDT0=    0
 Symmetry not used in FoFCou.
 Two-electron integral symmetry not used.
          MDV=    4294967296 using IRadAn=       1.
          Solving linear equations simultaneously, MaxMat=       0.
          There are    81 degrees of freedom in the 1st order CPHF.  IDoFFX=6 NUNeed=     0.
     75 vectors produced by pass  0 Test12= 1.29D-14 1.23D-09 XBig12= 1.46D-01 9.77D-02.
 AX will form    75 AO Fock derivatives at one time.
     75 vectors produced by pass  1 Test12= 1.29D-14 1.23D-09 XBig12= 3.43D-02 6.02D-02.
     75 vectors produced by pass  2 Test12= 1.29D-14 1.23D-09 XBig12= 3.59D-04 2.62D-03.
     75 vectors produced by pass  3 Test12= 1.29D-14 1.23D-09 XBig12= 1.71D-06 1.83D-04.
     75 vectors produced by pass  4 Test12= 1.29D-14 1.23D-09 XBig12= 5.26D-09 6.71D-06.
     53 vectors produced by pass  5 Test12= 1.29D-14 1.23D-09 XBig12= 5.86D-12 1.91D-07.
     10 vectors produced by pass  6 Test12= 1.29D-14 1.23D-09 XBig12= 5.38D-15 6.07D-09.
 InvSVY:  IOpt=1 It=  1 EMax= 3.33D-16
 Solved reduced A of dimension   438 with    81 vectors.
 End of Minotr F.D. properties file   721 does not exist.
 End of Minotr F.D. properties file   722 does not exist.
 End of Minotr F.D. properties file   788 does not exist.
 Leave Link 1002 at Thu Jan 29 20:31:43 2026, MaxMem=  4294967296 cpu:             497.4 elap:              31.2
 (Enter /root/g16/l601.exe)
 Copying SCF densities to generalized density rwf, IOpCl= 0 IROHF=0.

 **********************************************************************

            Population analysis using the SCF density.

 **********************************************************************

 Orbital symmetries:
       Occupied  (A) (A) (A) (A) (A) (A) (A) (A) (A) (A) (A) (A)
                 (A) (A) (A) (A) (A) (A) (A) (A) (A) (A) (A) (A)
                 (A) (A) (A) (A) (A) (A) (A) (A) (A) (A) (A) (A)
                 (A) (A) (A) (A) (A) (A) (A) (A) (A) (A) (A) (A)
                 (A) (A) (A)
       Virtual   (A) (A) (A) (A) (A) (A) (A) (A) (A) (A) (A) (A)
                 (A) (A) (A) (A) (A) (A) (A) (A) (A) (A) (A) (A)
                 (A) (A) (A) (A) (A) (A) (A) (A) (A) (A) (A) (A)
                 (A) (A) (A) (A) (A) (A) (A) (A) (A) (A) (A) (A)
                 (A) (A) (A) (A) (A) (A) (A) (A) (A) (A) (A) (A)
                 (A) (A) (A) (A) (A) (A) (A) (A) (A) (A) (A) (A)
                 (A) (A) (A) (A) (A) (A) (A) (A) (A) (A) (A) (A)
                 (A) (A) (A) (A) (A) (A) (A) (A) (A) (A) (A) (A)
                 (A) (A) (A) (A) (A) (A) (A) (A) (A) (A) (A) (A)
                 (A) (A) (A) (A) (A) (A) (A) (A) (A) (A) (A) (A)
                 (A) (A) (A) (A) (A) (A) (A) (A) (A) (A) (A) (A)
                 (A) (A) (A) (A) (A) (A) (A) (A) (A) (A) (A) (A)
                 (A) (A) (A) (A) (A) (A) (A) (A) (A) (A) (A) (A)
                 (A) (A) (A) (A) (A) (A) (A) (A) (A) (A) (A) (A)
                 (A) (A) (A) (A) (A) (A) (A) (A) (A) (A) (A) (A)
                 (A) (A) (A) (A) (A) (A) (A) (A) (A) (A) (A) (A)
                 (A) (A) (A) (A) (A) (A) (A) (A) (A) (A) (A) (A)
                 (A)
 The electronic state is 1-A.
 Alpha  occ. eigenvalues --  -19.15127 -19.13491 -19.12684 -10.28371 -10.27260
 Alpha  occ. eigenvalues --  -10.25655 -10.24294 -10.22290 -10.20997 -10.20153
 Alpha  occ. eigenvalues --  -10.19931 -10.19580 -10.19425 -10.19400  -1.06883
 Alpha  occ. eigenvalues --   -1.04598  -1.03113  -0.85664  -0.79779  -0.79145
 Alpha  occ. eigenvalues --   -0.76308  -0.72418  -0.64540  -0.63940  -0.62601
 Alpha  occ. eigenvalues --   -0.57629  -0.54701  -0.53994  -0.51684  -0.50368
 Alpha  occ. eigenvalues --   -0.48526  -0.47356  -0.46689  -0.45212  -0.43785
 Alpha  occ. eigenvalues --   -0.42693  -0.42391  -0.41143  -0.40994  -0.38810
 Alpha  occ. eigenvalues --   -0.38640  -0.37494  -0.36660  -0.36409  -0.35440
 Alpha  occ. eigenvalues --   -0.34733  -0.33656  -0.29877  -0.27457  -0.26074
 Alpha  occ. eigenvalues --   -0.24279
 Alpha virt. eigenvalues --   -0.06804  -0.02302   0.03995   0.05106   0.06387
 Alpha virt. eigenvalues --    0.08429   0.09253   0.10788   0.11286   0.12336
 Alpha virt. eigenvalues --    0.12390   0.13821   0.14556   0.14921   0.16624
 Alpha virt. eigenvalues --    0.16865   0.16963   0.19472   0.20253   0.21817
 Alpha virt. eigenvalues --    0.22464   0.23870   0.24603   0.25601   0.26605
 Alpha virt. eigenvalues --    0.28486   0.30190   0.33398   0.34095   0.36070
 Alpha virt. eigenvalues --    0.38220   0.40735   0.42768   0.44152   0.45074
 Alpha virt. eigenvalues --    0.46174   0.48746   0.49746   0.51193   0.51497
 Alpha virt. eigenvalues --    0.53210   0.54650   0.55197   0.56693   0.57740
 Alpha virt. eigenvalues --    0.57899   0.58987   0.60206   0.60326   0.60901
 Alpha virt. eigenvalues --    0.62211   0.63384   0.64103   0.64222   0.64978
 Alpha virt. eigenvalues --    0.65394   0.65849   0.66711   0.67329   0.67506
 Alpha virt. eigenvalues --    0.67901   0.68258   0.68887   0.70035   0.70545
 Alpha virt. eigenvalues --    0.71052   0.72874   0.73436   0.75276   0.75360
 Alpha virt. eigenvalues --    0.77420   0.80102   0.83179   0.83711   0.85545
 Alpha virt. eigenvalues --    0.85835   0.88597   0.89471   0.95360   0.96594
 Alpha virt. eigenvalues --    0.97642   0.99180   1.02872   1.05361   1.08432
 Alpha virt. eigenvalues --    1.10425   1.13287   1.16067   1.18293   1.18708
 Alpha virt. eigenvalues --    1.20295   1.21018   1.26249   1.26499   1.29399
 Alpha virt. eigenvalues --    1.32892   1.34473   1.37199   1.38222   1.40952
 Alpha virt. eigenvalues --    1.42025   1.44800   1.48654   1.49732   1.52818
 Alpha virt. eigenvalues --    1.53248   1.55727   1.56236   1.58994   1.61071
 Alpha virt. eigenvalues --    1.64176   1.66753   1.67890   1.69383   1.69937
 Alpha virt. eigenvalues --    1.71730   1.73844   1.74562   1.74898   1.76059
 Alpha virt. eigenvalues --    1.77373   1.78048   1.78309   1.79086   1.80118
 Alpha virt. eigenvalues --    1.81808   1.82974   1.84619   1.85136   1.85936
 Alpha virt. eigenvalues --    1.87556   1.87916   1.88872   1.91095   1.91702
 Alpha virt. eigenvalues --    1.92700   1.93521   1.95866   1.97153   1.98703
 Alpha virt. eigenvalues --    1.99674   2.00739   2.02421   2.04072   2.08475
 Alpha virt. eigenvalues --    2.09519   2.10166   2.13911   2.14646   2.16051
 Alpha virt. eigenvalues --    2.19197   2.20326   2.22904   2.24729   2.25668
 Alpha virt. eigenvalues --    2.27029   2.31411   2.32175   2.33580   2.34560
 Alpha virt. eigenvalues --    2.37469   2.39148   2.41018   2.43234   2.45303
 Alpha virt. eigenvalues --    2.47260   2.51511   2.52196   2.54838   2.59229
 Alpha virt. eigenvalues --    2.59399   2.62399   2.63421   2.65032   2.67226
 Alpha virt. eigenvalues --    2.69971   2.70892   2.72887   2.75421   2.75965
 Alpha virt. eigenvalues --    2.78530   2.82122   2.83230   2.87152   2.89824
 Alpha virt. eigenvalues --    2.91271   2.92907   2.93224   2.96812   3.00328
 Alpha virt. eigenvalues --    3.02707   3.04070   3.05966   3.06522   3.08187
 Alpha virt. eigenvalues --    3.14055   3.16106   3.18036   3.22781   3.31625
 Alpha virt. eigenvalues --    3.37926   3.40676   3.58792   3.61766   3.63730
          Condensed to atoms (all electrons):
               1          2          3          4          5          6
     1  O    7.671284   0.721149  -0.095043   0.006579  -0.000088   0.000002
     2  C    0.721149   4.856359   0.211751   0.079023   0.008150  -0.000383
     3  C   -0.095043   0.211751   5.443206   0.243749  -0.052183   0.001690
     4  C    0.006579   0.079023   0.243749   5.600319   0.323418  -0.028419
     5  C   -0.000088   0.008150  -0.052183   0.323418   4.629486   0.392513
     6  C    0.000002  -0.000383   0.001690  -0.028419   0.392513   4.675531
     7  C   -0.000001  -0.000359   0.002712  -0.018860  -0.076879   0.360494
     8  C    0.000049   0.005794   0.004587   0.004057  -0.010212  -0.040450
     9  O    0.000004   0.000852   0.001639  -0.007847   0.001190   0.003701
    10  C   -0.000131  -0.033007  -0.007714   0.008627  -0.016563   0.024139
    11  C    0.001251  -0.044196   0.019896  -0.056819  -0.000208  -0.000915
    12  C   -0.087428   0.213871  -0.160259   0.007962  -0.001283   0.000438
    13  O    0.001497  -0.025902  -0.003691  -0.050464   0.005117  -0.000334
    14  C    0.000778  -0.038117   0.010910   0.156728  -0.051231   0.000117
    15  H    0.005648  -0.050906   0.414733  -0.062695  -0.020513   0.000379
    16  H   -0.000006   0.000349  -0.018182  -0.007010   0.357257  -0.023569
    17  H    0.000002  -0.000596   0.001663   0.007022   0.328646  -0.003135
    18  H    0.000000   0.000064  -0.000509  -0.030882  -0.000158   0.342053
    19  H   -0.000000   0.000023  -0.000195   0.009961  -0.011789   0.346722
    20  H   -0.000000  -0.000007   0.000109   0.000212   0.008327   0.001550
    21  H    0.000000   0.000066  -0.000844  -0.004998   0.002786  -0.016051
    22  H   -0.000009   0.000128   0.000584   0.002690   0.001472  -0.005569
    23  H    0.002959   0.003769  -0.001473   0.000837   0.000152  -0.000256
    24  H   -0.000223   0.006880  -0.001371   0.001320  -0.000056   0.000043
    25  H    0.008686  -0.017826   0.012220   0.000964   0.000120  -0.000012
    26  H    0.000014   0.000995   0.007479  -0.025185  -0.007333  -0.002038
               7          8          9         10         11         12
     1  O   -0.000001   0.000049   0.000004  -0.000131   0.001251  -0.087428
     2  C   -0.000359   0.005794   0.000852  -0.033007  -0.044196   0.213871
     3  C    0.002712   0.004587   0.001639  -0.007714   0.019896  -0.160259
     4  C   -0.018860   0.004057  -0.007847   0.008627  -0.056819   0.007962
     5  C   -0.076879  -0.010212   0.001190  -0.016563  -0.000208  -0.001283
     6  C    0.360494  -0.040450   0.003701   0.024139  -0.000915   0.000438
     7  C    4.907359   0.348676  -0.089806  -0.212529   0.013386  -0.000439
     8  C    0.348676   4.885031   0.735410   0.054478   0.007727  -0.012005
     9  O   -0.089806   0.735410   7.660266  -0.142201   0.007070  -0.002289
    10  C   -0.212529   0.054478  -0.142201   5.916203   0.233633  -0.021841
    11  C    0.013386   0.007727   0.007070   0.233633   4.683420   0.342741
    12  C   -0.000439  -0.012005  -0.002289  -0.021841   0.342741   5.114787
    13  O    0.000113   0.003162  -0.000027  -0.067275  -0.057086   0.251305
    14  C    0.011117   0.003832   0.006922   0.135956  -0.013762  -0.070532
    15  H    0.000043   0.000284   0.000184  -0.001828  -0.000510   0.016521
    16  H    0.000015  -0.004856  -0.000056  -0.001730   0.000129  -0.000205
    17  H    0.009144  -0.000122  -0.000017   0.001669  -0.000101   0.000273
    18  H   -0.002785  -0.014964  -0.000118  -0.003293   0.000238  -0.000146
    19  H   -0.002586   0.007942  -0.000157  -0.000311   0.000011  -0.000007
    20  H    0.314673   0.007509   0.001236   0.004094  -0.000041  -0.000036
    21  H    0.311181  -0.001731   0.010842   0.017549  -0.000712   0.000017
    22  H    0.007819   0.010949   0.001919   0.242483   0.021014  -0.001624
    23  H    0.003694  -0.017477   0.031099  -0.008674   0.322295  -0.007393
    24  H   -0.000497   0.006351   0.000555   0.005642   0.320863   0.011097
    25  H    0.000030  -0.000754  -0.000042   0.012372  -0.011756   0.327292
    26  H    0.001824  -0.002556  -0.000170   0.004037   0.007471   0.004829
              13         14         15         16         17         18
     1  O    0.001497   0.000778   0.005648  -0.000006   0.000002   0.000000
     2  C   -0.025902  -0.038117  -0.050906   0.000349  -0.000596   0.000064
     3  C   -0.003691   0.010910   0.414733  -0.018182   0.001663  -0.000509
     4  C   -0.050464   0.156728  -0.062695  -0.007010   0.007022  -0.030882
     5  C    0.005117  -0.051231  -0.020513   0.357257   0.328646  -0.000158
     6  C   -0.000334   0.000117   0.000379  -0.023569  -0.003135   0.342053
     7  C    0.000113   0.011117   0.000043   0.000015   0.009144  -0.002785
     8  C    0.003162   0.003832   0.000284  -0.004856  -0.000122  -0.014964
     9  O   -0.000027   0.006922   0.000184  -0.000056  -0.000017  -0.000118
    10  C   -0.067275   0.135956  -0.001828  -0.001730   0.001669  -0.003293
    11  C   -0.057086  -0.013762  -0.000510   0.000129  -0.000101   0.000238
    12  C    0.251305  -0.070532   0.016521  -0.000205   0.000273  -0.000146
    13  O    7.995625   0.331166  -0.000854  -0.000178   0.000147   0.000032
    14  C    0.331166   4.851391   0.010929   0.013080  -0.009841   0.024476
    15  H   -0.000854   0.010929   0.699517   0.006750   0.000738  -0.000016
    16  H   -0.000178   0.013080   0.006750   0.692245  -0.023170   0.008126
    17  H    0.000147  -0.009841   0.000738  -0.023170   0.660078  -0.009802
    18  H    0.000032   0.024476  -0.000016   0.008126  -0.009802   0.687081
    19  H   -0.000002  -0.000903  -0.000041  -0.009024  -0.004074  -0.019332
    20  H    0.000000  -0.000901   0.000001  -0.000143  -0.000383  -0.010694
    21  H    0.000008  -0.000242  -0.000044   0.003572  -0.000179   0.007714
    22  H    0.001834   0.032382   0.000034   0.000036   0.000016   0.001453
    23  H    0.004138   0.001443  -0.000253  -0.000004  -0.000003   0.000019
    24  H    0.002059  -0.002035   0.000044   0.000000   0.000001  -0.000014
    25  H   -0.017675   0.000489  -0.000552  -0.000003   0.000002   0.000001
    26  H   -0.021541   0.348112  -0.000321  -0.000222   0.003549  -0.002230
              19         20         21         22         23         24
     1  O   -0.000000  -0.000000   0.000000  -0.000009   0.002959  -0.000223
     2  C    0.000023  -0.000007   0.000066   0.000128   0.003769   0.006880
     3  C   -0.000195   0.000109  -0.000844   0.000584  -0.001473  -0.001371
     4  C    0.009961   0.000212  -0.004998   0.002690   0.000837   0.001320
     5  C   -0.011789   0.008327   0.002786   0.001472   0.000152  -0.000056
     6  C    0.346722   0.001550  -0.016051  -0.005569  -0.000256   0.000043
     7  C   -0.002586   0.314673   0.311181   0.007819   0.003694  -0.000497
     8  C    0.007942   0.007509  -0.001731   0.010949  -0.017477   0.006351
     9  O   -0.000157   0.001236   0.010842   0.001919   0.031099   0.000555
    10  C   -0.000311   0.004094   0.017549   0.242483  -0.008674   0.005642
    11  C    0.000011  -0.000041  -0.000712   0.021014   0.322295   0.320863
    12  C   -0.000007  -0.000036   0.000017  -0.001624  -0.007393   0.011097
    13  O   -0.000002   0.000000   0.000008   0.001834   0.004138   0.002059
    14  C   -0.000903  -0.000901  -0.000242   0.032382   0.001443  -0.002035
    15  H   -0.000041   0.000001  -0.000044   0.000034  -0.000253   0.000044
    16  H   -0.009024  -0.000143   0.003572   0.000036  -0.000004   0.000000
    17  H   -0.004074  -0.000383  -0.000179   0.000016  -0.000003   0.000001
    18  H   -0.019332  -0.010694   0.007714   0.001453   0.000019  -0.000014
    19  H    0.675972  -0.003574  -0.013384   0.000035   0.000006  -0.000000
    20  H   -0.003574   0.644097  -0.010318  -0.000066  -0.000170   0.000021
    21  H   -0.013384  -0.010318   0.684099  -0.000347  -0.000132   0.000013
    22  H    0.000035  -0.000066  -0.000347   0.668121   0.004156  -0.015397
    23  H    0.000006  -0.000170  -0.000132   0.004156   0.668209  -0.022225
    24  H   -0.000000   0.000021   0.000013  -0.015397  -0.022225   0.682801
    25  H    0.000000  -0.000000  -0.000001  -0.000092   0.004108  -0.017125
    26  H   -0.000084   0.000016  -0.000035  -0.014236  -0.000554  -0.000023
              25         26
     1  O    0.008686   0.000014
     2  C   -0.017826   0.000995
     3  C    0.012220   0.007479
     4  C    0.000964  -0.025185
     5  C    0.000120  -0.007333
     6  C   -0.000012  -0.002038
     7  C    0.000030   0.001824
     8  C   -0.000754  -0.002556
     9  O   -0.000042  -0.000170
    10  C    0.012372   0.004037
    11  C   -0.011756   0.007471
    12  C    0.327292   0.004829
    13  O   -0.017675  -0.021541
    14  C    0.000489   0.348112
    15  H   -0.000552  -0.000321
    16  H   -0.000003  -0.000222
    17  H    0.000002   0.003549
    18  H    0.000001  -0.002230
    19  H    0.000000  -0.000084
    20  H   -0.000000   0.000016
    21  H   -0.000001  -0.000035
    22  H   -0.000092  -0.014236
    23  H    0.004108  -0.000554
    24  H   -0.017125  -0.000023
    25  H    0.692727  -0.000434
    26  H   -0.000434   0.685915
 Mulliken charges:
               1
     1  O   -0.236972
     2  C    0.102075
     3  C   -0.035464
     4  C   -0.160286
     5  C    0.189861
     6  C   -0.028243
     7  C    0.112461
     8  C    0.019290
     9  O   -0.220161
    10  C   -0.143781
    11  C    0.204962
    12  C    0.074354
    13  O   -0.351174
    14  C    0.247736
    15  H   -0.017273
    16  H    0.006800
    17  H    0.038473
    18  H    0.023687
    19  H    0.024791
    20  H    0.044489
    21  H    0.011170
    22  H    0.040216
    23  H    0.011733
    24  H    0.021275
    25  H    0.007262
    26  H    0.012718
 Sum of Mulliken charges =  -0.00000
 Mulliken charges with hydrogens summed into heavy atoms:
               1
     1  O   -0.236972
     2  C    0.102075
     3  C   -0.052736
     4  C   -0.160286
     5  C    0.235134
     6  C    0.020235
     7  C    0.168119
     8  C    0.019290
     9  O   -0.220161
    10  C   -0.103565
    11  C    0.237971
    12  C    0.081616
    13  O   -0.351174
    14  C    0.260454
 APT charges:
               1
     1  O    0.690251
     2  C   -0.856563
     3  C   -0.566362
     4  C   -0.236255
     5  C   -0.487654
     6  C   -0.681262
     7  C   -0.526875
     8  C   -0.788685
     9  O    0.224295
    10  C   -0.393085
    11  C   -0.462002
    12  C   -0.471122
    13  O   -0.125496
    14  C   -0.469733
    15  H    0.408817
    16  H    0.325537
    17  H    0.487890
    18  H    0.196454
    19  H    0.662260
    20  H    0.516955
    21  H    0.356135
    22  H    0.457587
    23  H    0.195768
    24  H    0.523539
    25  H    0.583083
    26  H    0.436523
 Sum of APT charges =  -0.00000
 APT charges with hydrogens summed into heavy atoms:
               1
     1  O    0.690251
     2  C   -0.856563
     3  C   -0.157545
     4  C   -0.236255
     5  C    0.325773
     6  C    0.177453
     7  C    0.346214
     8  C   -0.788685
     9  O    0.224295
    10  C    0.064502
    11  C    0.257305
    12  C    0.111961
    13  O   -0.125496
    14  C   -0.033210
 Electronic spatial extent (au):  <R**2>=           2137.3229
 Charge=             -0.0000 electrons
 Dipole moment (field-independent basis, Debye):
    X=             -6.2995    Y=             -1.0818    Z=              3.9471  Tot=              7.5122
 Quadrupole moment (field-independent basis, Debye-Ang):
   XX=            -82.9729   YY=            -81.7446   ZZ=            -87.0007
   XY=              5.6155   XZ=              3.6870   YZ=              7.2041
 Traceless Quadrupole moment (field-independent basis, Debye-Ang):
   XX=              0.9331   YY=              2.1615   ZZ=             -3.0946
   XY=              5.6155   XZ=              3.6870   YZ=              7.2041
 Octapole moment (field-independent basis, Debye-Ang**2):
  XXX=            -43.3244  YYY=             -6.4499  ZZZ=              5.0338  XYY=             -1.0052
  XXY=              7.9378  XXZ=             23.5043  XZZ=            -15.6439  YZZ=             -2.0345
  YYZ=              9.5808  XYZ=             -2.1321
 Hexadecapole moment (field-independent basis, Debye-Ang**3):
 XXXX=          -1543.6701 YYYY=           -720.3214 ZZZZ=           -542.3920 XXXY=              9.5909
 XXXZ=             81.8766 YYYX=              7.5621 YYYZ=             15.1097 ZZZX=              0.2690
 ZZZY=             10.2630 XXYY=           -355.7371 XXZZ=           -376.5988 YYZZ=           -210.9930
 XXYZ=             -0.6417 YYXZ=            -10.9093 ZZXY=             15.3377
 N-N= 9.564056131948D+02 E-N=-3.430040867149D+03  KE= 6.455405268495D+02
  Exact polarizability:   0.000   0.000   0.000   0.000   0.000   0.000
 Approx polarizability: 200.765  12.644 145.097 -33.759  -5.314 173.156
 No NMR shielding tensors so no spin-rotation constants.
 Leave Link  601 at Thu Jan 29 20:31:44 2026, MaxMem=  4294967296 cpu:               1.9 elap:               0.1
 (Enter /root/g16/l701.exe)
 ... and contract with generalized density number  0.
 Compute integral second derivatives.
 R6Disp: Adding Grimme-D3(BJ) dispersion energy 2nd derivatives to the Hessian.
   1 Symmetry operations used in ECPInt.
 ECPInt:  NShTT=    7260 NPrTT=   26324 LenC2=    7150 LenP2D=   19995.
 LDataN:  DoStor=T MaxTD1= 6 Len=  172
 D2PCM: PCM CHGder 2nd derivatives, FixD1E=F FixD2E=F DoIter=F DoCFld=F I1PDM=0
 GePol: Maximum number of non-zero 2nd derivatives   =     222
 Leave Link  701 at Thu Jan 29 20:31:46 2026, MaxMem=  4294967296 cpu:              38.7 elap:               2.4
 (Enter /root/g16/l702.exe)
 L702 exits ... SP integral derivatives will be done elsewhere.
 Leave Link  702 at Thu Jan 29 20:31:46 2026, MaxMem=  4294967296 cpu:               0.1 elap:               0.0
 (Enter /root/g16/l703.exe)
 Integral derivatives from FoFJK, PRISM(SPDF).
 Compute integral second derivatives, UseDBF=F ICtDFT=           0.
 Calling FoFJK, ICntrl=    100147 FMM=F ISym2X=0 I1Cent= 0 IOpClX= 0 NMat=1 NMatS=1 NMatT=0.
 FoFJK:  IHMeth= 1 ICntrl=  100147 DoSepK=F KAlg= 0 I1Cent=           0 FoldK=F
 IRaf=         0 NMat=       1 IRICut=       1 DoRegI=T DoRafI=F ISym2E= 0 IDoP0=0 IntGTp=1.
 FoFCou: FMM=F IPFlag=           0 FMFlag=      100000 FMFlg1=         800
         NFxFlg=           0 DoJE=F BraDBF=F KetDBF=F FulRan=T
         wScrn=  0.000000 ICntrl=    100147 IOpCl=  0 I1Cent=           0 NGrid=           0
         NMat0=    1 NMatS0=      1 NMatT0=    0 NMatD0=    1 NMtDS0=    0 NMtDT0=    0
 Symmetry not used in FoFCou.
 Leave Link  703 at Thu Jan 29 20:32:22 2026, MaxMem=  4294967296 cpu:             578.9 elap:              36.1
 (Enter /root/g16/l716.exe)
 Dipole        =-2.47840511D+00-4.25603923D-01 1.55291280D+00
 Polarizability= 0.00000000D+00 0.00000000D+00 0.00000000D+00
                 0.00000000D+00 0.00000000D+00 0.00000000D+00
 ***** Axes restored to original set *****
 -------------------------------------------------------------------
 Center     Atomic                   Forces (Hartrees/Bohr)
 Number     Number              X              Y              Z
 -------------------------------------------------------------------
      1        8           0.005073018   -0.000983025    0.005473921
      2        6           0.001998985   -0.000410023   -0.007169044
      3        6           0.004380852    0.003000365    0.002793323
      4        6          -0.000608834    0.008023664   -0.009135116
      5        6          -0.001272986   -0.004739660   -0.000974864
      6        6           0.003823417   -0.001136388    0.007271881
      7        6          -0.000669753    0.004577562   -0.000074345
      8        6          -0.005289804   -0.004391864   -0.006057304
      9        8           0.001696153   -0.003844290    0.008850370
     10        6           0.003409478   -0.002729044    0.003880444
     11        6           0.002493532    0.004592623   -0.000896795
     12        6           0.001887594   -0.006259787    0.003168861
     13        8           0.002013241    0.001443619   -0.002787229
     14        6          -0.001134593    0.001897756   -0.001582037
     15        1          -0.001920731    0.004873665    0.007979926
     16        1          -0.001131861    0.003641064    0.005343481
     17        1           0.000077202    0.005848851   -0.004182266
     18        1          -0.000909558   -0.000353758   -0.006999667
     19        1          -0.005798021    0.002249428   -0.001669598
     20        1          -0.004172263   -0.005137961   -0.002102154
     21        1          -0.001643998   -0.000519855    0.004899363
     22        1          -0.003622592   -0.002733175   -0.004288802
     23        1          -0.000594751   -0.003312940    0.003898933
     24        1           0.001806777   -0.004537016   -0.003909004
     25        1           0.004918240   -0.000411117    0.000652272
     26        1          -0.004808744    0.001351307   -0.002384551
 -------------------------------------------------------------------
 Cartesian Forces:  Max     0.009135116 RMS     0.003988016
 FormGI is forming the generalized inverse of G from B-inverse, IUseBI=4.
 Leave Link  716 at Thu Jan 29 20:32:22 2026, MaxMem=  4294967296 cpu:               0.3 elap:               0.0
 (Enter /root/g16/l103.exe)

 GradGradGradGradGradGradGradGradGradGradGradGradGradGradGradGradGradGrad
 Berny optimization.
 Red2BG is reusing G-inverse.
 Internal  Forces:  Max     0.012574373 RMS     0.003092899
 Search for a local minimum.
 Step number   1 out of a maximum of  156
 All quantities printed in internal units (Hartrees-Bohrs-Radians)
[...]
 8,0.00135614,-0.00083688,0.00035303,-0.00007456,0.00013032,-0.00001380
 ,0.00008436,-0.00025897,-0.00005746,0.00001367,0.00000464,0.00001054,0
 .00000883,-0.00014102,0.00005700,-0.00014755,0.00020917,0.00014638,0.0
 0040288,-0.00041296,-0.00029094,-0.00006819,-0.00011060,0.00004159,0.0
 0092650,0.00033804,-0.00025869,0.00067198,0.00018319,0.00038299,-0.001
 32159,0.00058362,0.00064229,0.27652484,-0.00049785,0.00014093,-0.00006
 524,0.00069873,-0.00024931,-0.00058396,-0.00109612,0.00131592,0.000013
 78,-0.00262188,-0.00346263,-0.00113097,-0.02150067,0.00886872,0.003301
 14,0.10809296,-0.09944972,-0.01543486,0.02443934,-0.01420178,-0.003367
 28,-0.00476544,-0.00181338,0.00221051,0.00257889,-0.00148672,0.0017433
 3,0.00022167,0.00039258,-0.00002144,-0.00005294,0.00006394,-0.00010573
 ,-0.00003259,-0.00010163,-0.00002215,0.00020146,0.00028604,0.00015234,
 -0.00006263,-0.00057852,-0.00040660,-0.00005606,-0.00012455,0.00006064
 ,0.00053819,0.00086653,0.00010860,0.00067010,0.00087599,0.00028713,0.0
 0595422,-0.00340696,-0.00092553,-0.11246958,0.11012908,-0.00016336,0.0
 0003790,0.00002884,0.00031218,-0.00000616,-0.00026948,-0.00030804,0.00
 047600,0.00004447,-0.00102789,-0.00197185,-0.00002074,-0.00953102,0.00
 282801,0.00019506,0.03285595,-0.01639428,-0.04938450,-0.01775600,0.011
 16735,0.00095853,0.00251903,0.00232509,-0.00096466,-0.00157751,0.00078
 460,-0.00110885,-0.00032243,-0.00005789,-0.00022081,-0.00008199,-0.000
 08911,0.00015301,0.00003288,0.00010205,-0.00013537,0.00031850,-0.00018
 199,0.00049280,-0.00003822,0.00039582,-0.00068712,-0.00003122,-0.00005
 455,0.00005019,-0.00005301,0.00061951,0.00051092,0.00051264,0.00000736
 ,0.00003475,0.02679285,-0.01343426,-0.00348958,-0.03223563,0.01463525,
 0.05213946,-0.00007599,0.00003179,-0.00004618,0.00014763,-0.00007235,0
 .00002200,0.00002707,0.00003395,0.00007332,0.00019136,0.00018341,0.000
 05249,0.00084683,0.00030398,0.00005379,0.00098194,0.00105010,0.0011830
 8,-0.16200130,-0.11559550,-0.06911413,-0.02089011,-0.01861198,-0.01328
 295,0.00101682,0.00323940,0.00185081,0.00110550,0.00256131,0.00135837,
 -0.00008964,0.00045159,0.00014537,0.00012097,0.00005852,-0.00001314,0.
 00008541,0.00005265,0.00000801,0.00048867,-0.00009540,-0.00059253,-0.0
 0000736,-0.00000413,-0.00000885,-0.00009188,-0.00010089,-0.00006508,0.
 00003842,-0.00005621,-0.00017861,0.00027468,-0.00009790,0.00001568,0.0
 0038589,-0.00010120,0.00030379,0.17141118,-0.00017901,0.00006805,-0.00
 008028,0.00025412,-0.00018977,-0.00004860,-0.00037625,0.00032153,-0.00
 013016,0.00131801,-0.00036228,0.00012622,0.00105267,-0.00339372,0.0042
 1475,-0.01861528,-0.01728500,-0.00984998,-0.10723280,-0.14669088,-0.06
 425829,0.00914074,0.01146271,0.00767607,0.00020893,-0.00290073,0.00022
 533,-0.00109547,-0.00139350,-0.00153283,-0.00000238,-0.00015860,0.0000
 9180,-0.00004011,-0.00007629,0.00001652,-0.00010557,0.00010255,0.00005
 742,-0.00013900,-0.00010949,0.00017915,0.00000483,-0.00001073,0.000007
 34,0.00016259,0.00023132,-0.00004005,-0.00129731,-0.00100751,-0.000153
 01,-0.00006495,0.00144170,-0.00000779,0.00029520,0.00057410,-0.0006069
 3,0.12020147,0.16346557,0.00005584,-0.00001741,0.00002997,-0.00006852,
 0.00005281,0.00001217,0.00009311,-0.00013163,0.00008962,-0.00063505,0.
 00008025,-0.00027665,-0.00019924,0.00293405,-0.00141569,0.01381939,0.0
 1362927,0.00552126,-0.06743880,-0.06718763,-0.07899558,-0.00037436,0.0
 0032105,-0.00229908,-0.00070494,0.00171547,0.00101618,-0.00052469,-0.0
 0050953,-0.00089457,-0.00004260,-0.00009590,0.00005155,-0.00003635,0.0
 0005733,-0.00001869,0.00003300,-0.00005054,-0.00002009,0.00003070,0.00
 007258,0.00023135,0.00000627,0.00001589,-0.00000049,0.00007426,0.00024
 480,0.00008040,0.00049074,0.00069192,0.00013409,0.00057039,-0.00029620
 ,0.00114161,-0.00014790,-0.00062933,0.00037932,0.07413572,0.06648933,0
 .08506242,-0.00002043,-0.00004162,-0.00009622,-0.00003273,0.00012788,0
 .00018557,0.00005743,-0.00002878,-0.00010266,-0.00003175,0.00020433,0.
 00013758,-0.00005032,0.00031368,0.00034711,-0.00052519,0.00031618,-0.0
 0175043,-0.06310185,0.01498410,0.07035815,-0.01460952,0.00941902,0.030
 34432,0.00308448,-0.00394565,-0.00050104,-0.00403747,0.00210625,-0.002
 73651,-0.00042536,-0.00004048,0.00110939,-0.00012497,0.00019475,-0.000
 04726,-0.00012043,-0.00018376,0.00002993,0.00033446,0.00031429,-0.0002
 7920,-0.00000236,-0.00000701,-0.00002927,0.00000837,-0.00009905,0.0000
 5499,0.00002437,-0.00002547,-0.00014706,0.00094873,0.00071474,-0.00044
 641,0.00049448,-0.00019762,-0.00055685,0.00675407,-0.00406893,-0.01955
 740,0.07131291,-0.00000526,0.00002632,0.00004707,0.00003662,-0.0001064
 3,-0.00012576,-0.00012494,0.00005501,0.00003059,0.00006375,-0.00002533
 ,-0.00009824,0.00038864,0.00147489,0.00023364,-0.00714730,0.00549597,0
 .02720578,0.01591256,-0.05750528,-0.04835684,0.00232062,-0.00303394,-0
 .01559007,-0.00005319,0.00000503,0.00139700,0.00196974,-0.00045800,0.0
 0143945,0.00018813,0.00034011,-0.00047339,0.00013610,-0.00009672,0.000
 02924,0.00006267,0.00015160,-0.00009479,0.00012462,-0.00025976,0.00022
 748,-0.00000278,0.00000910,0.00000694,-0.00007467,-0.00018245,-0.00042
 205,0.00023703,0.00000281,-0.00023953,-0.00036295,-0.00437104,0.003282
 96,-0.00008869,0.00125836,-0.00050457,0.00640415,-0.00420520,-0.017341
 15,-0.01993326,0.06125956,0.00009825,-0.00001445,0.00007701,-0.0001199
 3,0.00004317,-0.00003867,0.00010496,-0.00013304,0.00006144,-0.00012503
 ,0.00008702,-0.00015372,-0.00018497,-0.00058081,0.00070685,0.00275714,
 -0.00247932,-0.01478792,0.07322154,-0.05040118,-0.28403498,-0.00099581
 ,0.00173934,-0.00037290,-0.00199061,0.00100380,0.00193300,-0.00007260,
 0.00012135,0.00057722,-0.00024089,0.00002037,-0.00012181,-0.00005038,0
 .00002976,-0.00004563,0.00023119,0.00002186,0.00004684,-0.00020751,-0.
 00009881,-0.00001124,0.00000981,0.00001333,0.00000913,0.00042788,0.000
 38458,0.00012467,-0.00006071,0.00009492,0.00014717,0.00021866,0.003136
 12,-0.00047871,-0.00019353,-0.00001488,0.00076491,0.00352583,-0.002123
 95,-0.00971401,-0.07620112,0.04918907,0.30507135,-0.00010162,-0.000256
 52,-0.00048955,-0.00034084,0.00100872,0.00092030,0.00048608,0.00007110
 ,-0.00001165,0.00033826,-0.00032167,0.00034778,0.00001177,-0.00023149,
 -0.00016695,0.00022391,-0.00004739,0.00013268,-0.00202336,-0.00211842,
 -0.00192629,0.01181683,0.01233567,0.01280501,-0.00229431,-0.00299857,0
 .00152918,-0.08695021,-0.05811111,-0.07331767,-0.01185814,-0.01260344,
 -0.01706271,-0.00294899,0.00147683,-0.00213700,0.00061811,0.00009215,0
 .00079571,-0.00118956,-0.00171964,-0.00480808,-0.00001564,-0.00011261,
 0.00002165,0.00005450,-0.00003770,-0.00001249,0.00003399,0.00000025,0.
 00000282,-0.00004685,0.00004217,-0.00006924,-0.00000113,0.00000504,-0.
 00000681,-0.00069007,0.00060496,0.00035159,0.00046369,-0.00023677,-0.0
 0015305,0.09550977,-0.00090380,0.00038716,-0.00035118,0.00156285,-0.00
 138604,-0.00004379,-0.00101228,0.00003279,-0.00025295,-0.00158258,-0.0
 0303314,0.00311978,-0.00021308,0.00015760,-0.00039512,-0.00009060,-0.0
 0016473,-0.00017735,-0.00005327,0.00005427,-0.00019875,0.00071379,0.00
 095750,-0.00007814,-0.00066569,-0.00142346,0.00030596,-0.06278681,-0.1
 2067175,-0.11035510,0.00822823,0.00755849,0.00957564,0.00090245,-0.001
 63028,0.00134288,-0.00019909,0.00153331,0.00010127,-0.00939379,-0.0207
 4421,-0.01864888,0.00015996,0.00042948,-0.00036611,0.00016134,0.000004
 64,-0.00004830,-0.00001371,0.00003484,0.00004217,0.00008649,-0.0000862
 2,0.00018521,0.00003156,0.00009812,0.00009700,0.00010551,0.00012031,-0
 .00003307,0.00001824,0.00004305,0.00000377,0.06384198,0.13514579,0.000
 21958,-0.00012398,0.00011204,-0.00012556,0.00054865,-0.00008826,0.0005
 4475,-0.00017409,0.00064814,0.00049128,0.00120262,-0.00094358,-0.00002
 407,-0.00007931,0.00015275,-0.00017730,0.00003584,-0.00004164,0.001221
 40,0.00159268,0.00112574,-0.01143987,-0.01381516,-0.01987091,0.0037693
 7,0.00248451,-0.00050436,-0.08137415,-0.11510304,-0.18612396,-0.001865
 65,-0.00323919,-0.00284020,0.00021117,0.00110908,-0.00021348,-0.000575
 50,-0.00066700,-0.00017142,0.00514541,0.01086482,0.00937729,-0.0000443
 5,-0.00017452,0.00014163,-0.00004880,-0.00000960,0.00002055,0.00004876
 ,-0.00003010,-0.00002112,0.00008562,-0.00015310,-0.00003399,-0.0000120
 0,-0.00001306,-0.00003902,0.00064742,-0.00023215,-0.00007388,-0.000100
 82,0.00030935,0.00006936,0.08308162,0.11550544,0.19741788,-0.00021092,
 0.00051802,-0.00017012,0.00143842,-0.00023227,0.00035758,-0.00034948,0
 .00007515,0.00010590,0.00022080,-0.00001883,-0.00025343,0.00005567,-0.
 00000958,-0.00000824,0.00023666,0.00003422,-0.00020518,0.00053107,-0.0
 0043389,0.00029018,-0.00046763,0.00175739,-0.00260964,-0.00028845,-0.0
 0103879,0.00212471,0.00064355,0.00914981,-0.02486574,-0.04348626,-0.00
 065462,-0.00149085,0.00165334,-0.00230902,0.01684646,-0.00063241,-0.00
 454161,0.00179706,-0.00408911,0.00088636,-0.00097313,-0.00001228,-0.00
 009148,0.00009372,-0.00000749,0.00000035,0.00001290,-0.00003398,-0.000
 02840,-0.00000068,0.00002085,-0.00001395,0.00007079,-0.00000568,-0.000
 11937,0.00009603,0.00010355,-0.00005903,0.00005315,-0.00001440,-0.0000
 3017,0.00000716,-0.00224525,0.00104891,-0.00046566,0.04713277,-0.00023
 526,0.00048348,-0.00065126,0.00086906,-0.00041891,0.00167425,-0.000557
 43,-0.00008866,-0.00021246,0.00020523,0.00033088,0.00061129,-0.0000485
 8,0.00001910,-0.00014200,-0.00004890,0.00001668,0.00005746,0.00003565,
 0.00024792,0.00018665,0.00032114,-0.00011521,0.00247509,-0.00178790,-0
 .00020975,-0.00100192,0.00066104,-0.00311619,0.00625143,0.00001623,-0.
 07647829,0.08122025,0.00382435,-0.00446279,0.01868006,0.00050341,-0.00
 656303,0.00393995,-0.00150958,-0.00137949,0.00146223,-0.00002778,0.000
 00668,0.00000369,0.00002628,-0.00002156,-0.00000800,-0.00003913,0.0000
 1962,-0.00000491,-0.00002458,0.00000599,-0.00002995,-0.00001018,0.0000
 2538,-0.00003529,0.00002964,-0.00000977,-0.00000309,-0.00005049,0.0000
 3589,-0.00002246,0.00004816,-0.00025815,0.00019240,-0.00121334,0.08303
 810,0.00044153,-0.00022509,0.00048115,-0.00063023,-0.00038463,-0.00040
 740,0.00009073,-0.00013253,0.00015455,-0.00006634,-0.00004020,-0.00012
 904,0.00000855,-0.00004024,0.00000886,-0.00015785,-0.00001828,0.000099
 98,-0.00005606,0.00019615,0.00000960,0.00161582,0.00134559,-0.00278684
 ,0.00408420,-0.00205770,-0.00043960,-0.00361547,0.00165414,-0.00320153
 ,-0.00347216,0.08607817,-0.29626459,0.00022693,0.00005625,0.00142334,-
 0.00015375,-0.00082996,0.00136848,0.00026803,-0.00062675,-0.00050998,0
 .00000055,0.00003402,-0.00000755,-0.00000403,0.00000549,0.00000308,0.0
 0001629,0.00000366,-0.00000599,0.00002620,-0.00001899,0.00000326,0.000
 00486,0.00006525,-0.00002694,-0.00001233,-0.00000121,-0.00003333,-0.00
 003783,0.00001141,0.00005542,-0.00049057,0.00061203,-0.00026697,0.0021
 9741,-0.09272418,0.31507615,-0.00031207,0.00005535,-0.00149397,-0.0019
 7016,-0.00170991,0.00409512,0.00113628,-0.00014764,-0.00045764,-0.0003
 1829,-0.00067451,-0.00095252,0.00002760,-0.00024153,0.00016481,0.00003
 323,-0.00024512,0.00005478,-0.00063397,-0.00036013,0.00094396,-0.00276
 214,0.00283325,-0.00263592,0.00022468,-0.00012046,0.00033720,-0.010881
 70,0.02026745,0.01599430,-0.06360563,0.06006539,0.05060902,0.00199069,
 -0.02081464,-0.01501974,0.00139692,0.00169241,0.00040465,-0.00271290,0
 .00015492,0.00025546,0.00023845,-0.00005128,-0.00009534,-0.00001372,0.
 00001237,0.00002019,0.00010495,-0.00002402,0.00000173,0.00004548,0.000
 01450,-0.00000301,0.00000683,0.00007696,-0.00000108,-0.00013240,0.0000
 4244,0.00000685,-0.00034028,0.00011769,0.00004240,0.00117757,-0.000353
 80,0.00071919,-0.00002805,-0.00040507,-0.00038878,0.07622666,-0.000437
 27,-0.00006064,-0.00188907,-0.00255745,-0.00079572,0.00459514,0.000606
 41,0.00031633,-0.00041510,-0.00023505,0.00029972,0.00015592,0.00000438
 ,-0.00015575,0.00022563,-0.00004436,0.00002634,-0.00005629,0.00002249,
 0.00007326,-0.00028207,0.00000842,-0.00062569,0.00155613,-0.00049136,0
 .00005107,-0.00048765,0.00176438,-0.00417051,-0.00427978,0.06075967,-0
 .19310416,-0.12446051,0.00382636,-0.02150222,-0.01672943,0.00019714,0.
 00241890,0.00091448,0.00089559,-0.00064595,-0.00002655,0.00013124,-0.0
 0005526,-0.00007699,0.00001104,0.00000931,-0.00001266,0.00009108,-0.00
 000942,-0.00002194,-0.00001831,0.00000061,0.00000243,0.00002123,0.0000
 0514,-0.00000787,0.00000467,0.00001401,0.00000551,0.00008088,-0.000025
 52,-0.00000537,-0.00053122,0.00099513,0.00036078,-0.00333441,0.0096336
 1,0.00651245,-0.06108544,0.20595520,0.00032829,-0.00035962,0.00034801,
 -0.00044203,0.00125609,-0.00016435,0.00012203,-0.00041398,0.00027810,-
 0.00015830,-0.00018914,-0.00054399,-0.00001040,0.00001159,-0.00000838,
 0.00006487,-0.00007884,0.00000527,-0.00026358,-0.00023509,0.00014332,-
 0.00094595,0.00142833,-0.00151410,0.00153579,-0.00032467,0.00072776,-0
 .00520095,0.00842950,0.00558493,0.05101991,-0.12724849,-0.15385766,-0.
 00157047,0.00538245,0.00268121,0.00107666,-0.00075904,0.00082363,-0.00
 111757,0.00070055,-0.00010007,0.00003355,0.00003133,-0.00003654,0.0000
 0210,-0.00000951,-0.00000110,-0.00000088,-0.00001283,0.00001450,0.0000
 0031,0.00000436,0.00000181,0.00001072,-0.00001561,0.00001711,-0.000046
 22,0.00000298,0.00000637,-0.00004627,-0.00000758,0.00002827,-0.0001113
 9,0.00043598,0.00116533,0.00749932,-0.02206718,-0.01461198,-0.05155154
 ,0.13404310,0.15853825,0.00181574,-0.00064878,0.00055000,-0.00081862,-
 0.00054130,-0.00185282,0.00046899,-0.00027710,-0.00006172,-0.00007811,
 -0.00019348,-0.00018937,-0.00006138,-0.00007316,0.00017433,-0.00003225
 ,0.00002368,0.00000761,-0.00002740,0.00005560,0.00013181,0.00013612,-0
 .00007853,-0.00066690,-0.00018767,-0.00004499,0.00036709,-0.00078331,-
 0.00105638,0.00044248,-0.01018706,0.00314621,0.00331397,-0.29217890,0.
 06385684,0.06277011,-0.01196881,0.00354402,-0.00234034,0.00164658,0.00
 110740,-0.00177710,0.00003777,-0.00003329,0.00006982,-0.00006274,0.000
 03624,0.00003832,0.00001567,-0.00000308,-0.00000697,0.00003047,-0.0000
 0395,0.00003233,-0.00002902,0.00001318,0.00000206,-0.00000476,-0.00000
 490,-0.00000495,-0.00004535,0.00003381,0.00001243,-0.00033906,0.000054
 09,-0.00007074,-0.00060268,-0.00055132,0.00001745,0.00095673,0.0003696
 3,-0.00028099,0.31282871,-0.00185085,0.00114153,0.00304763,0.02086192,
 -0.00578500,-0.00744926,-0.00086120,-0.00183308,-0.00260642,-0.0002283
 5,0.00043907,-0.00020687,0.00001673,0.00008066,-0.00002128,0.00003602,
 -0.00010597,0.00006999,-0.00009065,0.00005012,0.00035686,-0.00027972,0
 .00023024,-0.00078243,-0.00016929,-0.00003497,0.00015722,-0.00292154,-
 0.00303499,0.00110120,-0.02342731,0.00694402,0.00410757,0.06050340,-0.
 06056717,-0.01605662,0.01747940,-0.00467252,-0.00009661,-0.00110948,-0
 .00183231,0.00268049,0.00048496,-0.00077087,0.00014946,0.00000189,-0.0
 0002176,-0.00001715,0.00002316,-0.00000262,0.00002017,0.00001016,-0.00
 000367,-0.00004769,0.00002371,0.00003049,-0.00003003,0.00001278,0.0000
 0668,-0.00001499,-0.00010096,0.00007539,-0.00000156,-0.00066752,0.0002
 2103,-0.00017473,-0.00004195,-0.00034240,0.00029003,0.00052265,0.00156
 119,-0.00007163,-0.06892770,0.06808464,-0.00177767,0.00143586,0.002544
 84,0.02465841,-0.00653584,-0.00402722,-0.00088912,-0.00284847,-0.00306
 323,-0.00096262,0.00003481,-0.00063073,0.00008949,0.00013013,0.0002903
 3,-0.00004289,-0.00003363,-0.00008630,0.00002224,0.00002772,-0.0000650
 8,-0.00001728,-0.00026526,0.00000442,-0.00000101,0.00005975,0.00007756
 ,-0.00029479,0.00157440,-0.00012581,0.00437211,-0.00299525,0.00084807,
 0.07192667,-0.01782898,-0.06700778,-0.03301375,0.00877201,0.00444576,-
 0.00169600,0.00305522,-0.00438627,0.00079125,-0.00088456,0.00023680,-0
 .00008580,0.00005719,0.00001556,0.00005620,-0.00003529,-0.00001395,0.0
 0003620,0.00001918,0.00008021,0.00001605,0.00002780,0.00005792,0.00000
 071,0.00000279,0.00000417,0.00001677,-0.00001777,0.00000700,0.00029650
 ,-0.00004217,0.00001295,-0.00030681,0.00005551,0.00005140,-0.00096616,
 0.00025964,0.00050638,-0.06086391,0.01588284,0.06984229,0.00000778,-0.
 00059746,-0.00059284,-0.00069025,0.00130350,0.00085533,0.00098446,0.00
 109040,0.00090116,0.00389067,-0.00267282,0.00143649,-0.00022867,-0.000
 30963,0.00048780,-0.00160665,0.00045854,0.00139536,-0.00000322,-0.0001
 2968,-0.00007415,0.00004356,-0.00042894,0.00025542,-0.00004779,0.00013
 256,0.00013758,0.00608238,-0.00283265,0.00616171,-0.00073804,-0.001382
 89,0.00098293,-0.00485841,-0.00226505,0.00292526,-0.02843080,0.0124522
 2,-0.02584831,-0.11357898,0.03186306,-0.11160265,0.00039042,0.00021907
 ,-0.00001668,-0.00001585,-0.00014204,-0.00012291,0.00009284,0.00000097
 ,-0.00002185,-0.00192810,0.00040914,0.00110492,0.00008382,0.00008322,-
 0.00005483,0.00000351,-0.00000494,0.00001377,-0.00000057,0.00006386,-0
 .00006110,0.00031056,0.00035310,0.00013890,0.00043738,-0.00003066,0.00
 008686,0.00014527,-0.00005974,0.00005301,-0.00052968,0.00069976,-0.001
 36478,0.14018437,-0.00026043,0.00018639,0.00020136,0.00103817,-0.00010
 000,-0.00022915,0.00149714,-0.00263538,-0.00209901,-0.01185944,0.00558
 432,-0.02092845,-0.00047382,0.00082196,0.00046887,0.00068525,0.0000827
 9,0.00006906,-0.00018019,0.00001667,0.00027085,0.00122542,-0.00183859,
 -0.00060460,-0.00054033,0.00011087,0.00135445,0.01149668,-0.00563326,0
 .01968740,-0.00009591,-0.00240204,0.00182049,0.00030943,-0.00046999,0.
 00065277,0.00128562,0.00032408,0.00082519,0.03349194,-0.06124337,0.052
 04326,-0.00119254,-0.00070599,-0.00020504,-0.00023637,-0.00004559,0.00
 020246,0.00002757,-0.00029256,0.00014733,0.00036937,0.00040895,-0.0003
 2973,0.00000296,-0.00005615,-0.00010117,0.00001064,-0.00001504,0.00000
 021,-0.00007124,0.00003658,-0.00001266,0.00046703,0.00162448,-0.000217
 16,0.00070050,-0.00039912,0.00023512,0.00037817,-0.00020900,0.00006694
 ,0.00019726,0.00014228,0.00009237,-0.03827290,0.06670668,-0.00066584,0
 .00034146,-0.00028000,0.00179460,-0.00055130,0.00021632,0.00152889,-0.
 00229258,-0.00211786,-0.01140996,0.00491803,-0.01742173,-0.00093690,-0
 .00002939,0.00031476,-0.00066583,0.00009553,-0.00047326,0.00005383,0.0
 0018399,-0.00004929,-0.00083581,0.00076456,0.00044388,0.00033963,-0.00
 018483,-0.00033440,-0.00333315,0.00072239,-0.00395999,0.00071205,0.000
 33201,-0.00019328,0.00270382,-0.00052911,0.00054322,0.00696161,-0.0029
 7493,0.01287220,-0.11944134,0.05381865,-0.24490349,-0.00112046,-0.0006
 4621,-0.00009962,-0.00001681,0.00001608,0.00016817,0.00039698,-0.00033
 573,-0.00007641,0.00079576,0.00020433,0.00090339,-0.00009857,0.0001308
 7,0.00051977,-0.00001637,-0.00002446,-0.00001841,0.00005254,-0.0001382
 7,0.00007996,0.00047858,-0.00033621,0.00098913,-0.00020290,0.00009239,
 -0.00004355,-0.00008396,0.00012008,-0.00003209,0.00018601,-0.00028620,
 0.00038072,0.12282361,-0.05341117,0.25257185\\-0.00000068,0.00000321,0
 .00000008,-0.00000045,0.00000223,0.00000046,-0.00000165,0.00000141,-0.
 00000075,-0.00000009,0.00000016,0.00000021,-0.00000158,-0.00000031,-0.
 00000149,-0.00000110,-0.00000150,-0.00000052,0.00000015,-0.00000253,0.
 00000041,-0.00000035,-0.00000191,0.00000010,0.00000086,0.00000044,-0.0
 0000020,0.00000249,0.00000109,0.00000190,0.00000130,0.00000020,0.00000
 036,0.00000062,0.00000201,0.00000053,-0.00000022,0.00000098,0.00000011
 ,-0.00000055,-0.00000004,-0.00000029,-0.00000168,0.00000132,-0.0000008
 5,-0.00000192,-0.00000090,-0.00000127,-0.00000201,-0.00000148,-0.00000
 087,-0.00000005,-0.00000219,-0.00000023,-0.00000072,-0.00000276,-0.000
 00078,0.00000135,-0.00000203,0.00000016,0.00000008,-0.00000121,-0.0000
 0060,0.00000175,-0.00000068,0.00000081,0.00000176,0.00000161,0.0000006
 7,0.00000214,0.00000138,0.00000130,0.00000042,0.00000242,0.00000071,0.
 00000013,-0.00000087,0.00000004\\\@


 THERE ARE PEOPLE SO ADDICTED TO EXAGERATING THEY
 CAN'T TELL THE TRUTH WITHOUT LYING. -- FORTUNE COOKIE
 Job cpu time:       0 days  0 hours 28 minutes 52.5 seconds.
 Elapsed time:       0 days  0 hours  1 minutes 48.6 seconds.
 File lengths (MBytes):  RWF=    260 Int=      0 D2E=      0 Chk=     19 Scr=      1
 Normal termination of Gaussian 16 at Thu Jan 29 20:35:40 2026.
