 Entering Gaussian System, Link 0=g16
 Initial command:
 /root/g16/l1.exe "/root/g16/scratch/gau_root_3033046/Gau-3033053.inp" -scrdir="/root/g16/scratch/gau_root_3033046/"
 Entering Link 1 = /root/g16/l1.exe PID=   3033055.
  
 Copyright (c) 1988,1990,1992,1993,1995,1998,2003,2009,2016,
            Gaussian, Inc.  All Rights Reserved.
  
 This is part of the Gaussian(R) 16 program.  It is based on
 the Gaussian(R) 09 system (copyright 2009, Gaussian, Inc.),
 the Gaussian(R) 03 system (copyright 2003, Gaussian, Inc.),
 the Gaussian(R) 98 system (copyright 1998, Gaussian, Inc.),
 the Gaussian(R) 94 system (copyright 1995, Gaussian, Inc.),
 the Gaussian 92(TM) system (copyright 1992, Gaussian, Inc.),
 the Gaussian 90(TM) system (copyright 1990, Gaussian, Inc.),
 the Gaussian 88(TM) system (copyright 1988, Gaussian, Inc.),
 the Gaussian 86(TM) system (copyright 1986, Carnegie Mellon
 University), and the Gaussian 82(TM) system (copyright 1983,
 Carnegie Mellon University). Gaussian is a federally registered
 trademark of Gaussian, Inc.
  
 This software contains proprietary and confidential information,
 including trade secrets, belonging to Gaussian, Inc.
  
 This software is provided under written license and may be
 used, copied, transmitted, or stored only in accord with that
 written license.
  
 The following legend is applicable only to US Government
 contracts under FAR:
  
                    RESTRICTED RIGHTS LEGEND
  
 Use, reproduction and disclosure by the US Government is
 subject to restrictions as set forth in subparagraphs (a)
 and (c) of the Commercial Computer Software - Restricted
 Rights clause in FAR 52.227-19.
  
 Gaussian, Inc.
 340 Quinnipiac St., Bldg. 40, Wallingford CT 06492
  
  
 ---------------------------------------------------------------
 Warning -- This program may not be used in any manner that
 competes with the business of Gaussian, Inc. or will provide
 assistance to any competitor of Gaussian, Inc.  The licensee
 of this program is prohibited from giving any competitor of
 Gaussian, Inc. access to this program.  By using this program,
 the user acknowledges that Gaussian, Inc. is engaged in the
 business of creating and licensing software in the field of
 computational chemistry and represents and warrants to the
 licensee that it is not a competitor of Gaussian, Inc. and that
 it will not use this program in any manner prohibited above.
 ---------------------------------------------------------------
  

 Cite this work as:
 Gaussian 16, Revision A.03,
 M. J. Frisch, G. W. Trucks, H. B. Schlegel, G. E. Scuseria, 
 M. A. Robb, J. R. Cheeseman, G. Scalmani, V. Barone, 
 G. A. Petersson, H. Nakatsuji, X. Li, M. Caricato, A. V. Marenich, 
 J. Bloino, B. G. Janesko, R. Gomperts, B. Mennucci, H. P. Hratchian, 
 J. V. Ortiz, A. F. Izmaylov, J. L. Sonnenberg, D. Williams-Young, 
 F. Ding, F. Lipparini, F. Egidi, J. Goings, B. Peng, A. Petrone, 
 T. Henderson, D. Ranasinghe, V. G. Zakrzewski, J. Gao, N. Rega, 
 G. Zheng, W. Liang, M. Hada, M. Ehara, K. Toyota, R. Fukuda, 
 J. Hasegawa, M. Ishida, T. Nakajima, Y. Honda, O. Kitao, H. Nakai, 
 T. Vreven, K. Throssell, J. A. Montgomery, Jr., J. E. Peralta, 
 F. Ogliaro, M. J. Bearpark, J. J. Heyd, E. N. Brothers, K. N. Kudin, 
 V. N. Staroverov, T. A. Keith, R. Kobayashi, J. Normand, 
 K. Raghavachari, A. P. Rendell, J. C. Burant, S. S. Iyengar, 
 J. Tomasi, M. Cossi, J. M. Millam, M. Klene, C. Adamo, R. Cammi, 
 J. W. Ochterski, R. L. Martin, K. Morokuma, O. Farkas, 
 J. B. Foresman, and D. J. Fox, Gaussian, Inc., Wallingford CT, 2016.
 
 ******************************************
 Gaussian 16:  ES64L-G16RevA.03 25-Dec-2016
                29-Jan-2026 
 ******************************************
 %chk=conf_003.chk
 %mem=32GB
 %nprocshared=16
 Will use up to   16 processors via shared memory.
 --------------------------------------------------------------------
 #p B3LYP/def2SVP em=GD3BJ SCRF=(PCM,Solvent=Acetone) Opt=CalcFC Freq
 --------------------------------------------------------------------
 1/10=4,18=20,19=15,26=3,38=1/1,3;
 2/9=110,12=2,17=6,18=5,40=1/2;
 3/5=43,7=101,11=2,25=1,30=1,70=2201,71=2,72=19,74=-5,124=41,140=1/1,2,3;
 4//1;
 5/5=2,38=5,53=19/2;
 8/6=4,10=90,11=11/1;
 11/6=1,8=1,9=11,15=111,16=1/1,2,10;
 10/6=1,13=1/2;
 6/7=2,8=2,9=2,10=2,28=1/1;
 7/10=1,18=20,25=1/1,2,3,16;
 1/10=4,18=20,19=15,26=3/3(2);
 2/9=110/2;
 99//99;
 2/9=110/2;
 3/5=43,7=101,11=2,25=1,30=1,70=2205,71=1,72=19,74=-5,124=41/1,2,3;
 4/5=5,16=3,69=1/1;
 5/5=2,38=5,53=19/2;
 7//1,2,3,16;
 1/18=20,19=15,26=3/3(-5);
 2/9=110/2;
 6/7=2,8=2,9=2,10=2,19=2,28=1/1;
 99/9=1/99;
 Leave Link    1 at Thu Jan 29 20:44:47 2026, MaxMem=  4294967296 cpu:               0.4 elap:               0.0
 (Enter /root/g16/l101.exe)
 ----------------
 product_conf_003
 ----------------
 Symbolic Z-matrix:
 Charge =  0 Multiplicity = 1
 O                     2.90327   0.9886    1.362 
 C                     2.01419   0.75908   0.56554 
 C                     0.7917    1.54786   0.44332 
 C                    -0.17786   1.16572  -0.40278 
 C                    -1.57042   1.69833  -0.37438 
 C                    -2.36928   1.03932   0.77812 
 C                    -1.7774   -0.29666   1.2646 
 C                    -1.59958  -1.27216   0.12487 
 O                    -2.50611  -1.9765   -0.25523 
 C                    -0.25843  -1.31929  -0.58352 
 C                     1.0111   -1.51871   0.26165 
 C                     2.00281  -0.47375  -0.33573 
 O                     1.46239  -0.12284  -1.59234 
 C                     0.08896   0.00991  -1.32608 
 H                     0.67555   2.39067   1.10902 
 H                    -1.55885   2.77842  -0.22791 
 H                    -2.06034   1.48493  -1.32507 
 H                    -3.39371   0.87292   0.44549 
 H                    -2.39663   1.71079   1.63642 
 H                    -2.48238  -0.73617   1.97301 
 H                    -0.83336  -0.11183   1.77377 
 H                    -0.32165  -2.10865  -1.3382 
 H                     0.8532   -1.34052   1.32448 
 H                     1.40203  -2.52654   0.13994 
 H                     3.01137  -0.86283  -0.47943 
 H                    -0.43667   0.11652  -2.27615 
 
 ITRead=  0  0  0  0  0  0  0  0  0  0  0  0  0  0  0  0  0  0  0  0
 ITRead=  0  0  0  0  0  0
 MicOpt= -1 -1 -1 -1 -1 -1 -1 -1 -1 -1 -1 -1 -1 -1 -1 -1 -1 -1 -1 -1
 MicOpt= -1 -1 -1 -1 -1 -1
 NAtoms=     26 NQM=       26 NQMF=       0 NMMI=      0 NMMIF=      0
                NMic=       0 NMicF=      0.
                    Isotopes and Nuclear Properties:
 (Nuclear quadrupole moments (NQMom) in fm**2, nuclear magnetic moments (NMagM)
  in nuclear magnetons)

  Atom         1           2           3           4           5           6           7           8           9          10
 IAtWgt=          16          12          12          12          12          12          12          12          16          12
 AtmWgt=  15.9949146  12.0000000  12.0000000  12.0000000  12.0000000  12.0000000  12.0000000  12.0000000  15.9949146  12.0000000
 NucSpn=           0           0           0           0           0           0           0           0           0           0
 AtZEff=  -0.0000000  -0.0000000  -0.0000000  -0.0000000  -0.0000000  -0.0000000  -0.0000000  -0.0000000  -0.0000000  -0.0000000
 NQMom=    0.0000000   0.0000000   0.0000000   0.0000000   0.0000000   0.0000000   0.0000000   0.0000000   0.0000000   0.0000000
 NMagM=    0.0000000   0.0000000   0.0000000   0.0000000   0.0000000   0.0000000   0.0000000   0.0000000   0.0000000   0.0000000
 AtZNuc=   8.0000000   6.0000000   6.0000000   6.0000000   6.0000000   6.0000000   6.0000000   6.0000000   8.0000000   6.0000000

  Atom        11          12          13          14          15          16          17          18          19          20
 IAtWgt=          12          12          16          12           1           1           1           1           1           1
 AtmWgt=  12.0000000  12.0000000  15.9949146  12.0000000   1.0078250   1.0078250   1.0078250   1.0078250   1.0078250   1.0078250
 NucSpn=           0           0           0           0           1           1           1           1           1           1
 AtZEff=  -0.0000000  -0.0000000  -0.0000000  -0.0000000  -0.0000000  -0.0000000  -0.0000000  -0.0000000  -0.0000000  -0.0000000
 NQMom=    0.0000000   0.0000000   0.0000000   0.0000000   0.0000000   0.0000000   0.0000000   0.0000000   0.0000000   0.0000000
 NMagM=    0.0000000   0.0000000   0.0000000   0.0000000   2.7928460   2.7928460   2.7928460   2.7928460   2.7928460   2.7928460
 AtZNuc=   6.0000000   6.0000000   8.0000000   6.0000000   1.0000000   1.0000000   1.0000000   1.0000000   1.0000000   1.0000000

  Atom        21          22          23          24          25          26
 IAtWgt=           1           1           1           1           1           1
 AtmWgt=   1.0078250   1.0078250   1.0078250   1.0078250   1.0078250   1.0078250
 NucSpn=           1           1           1           1           1           1
 AtZEff=  -0.0000000  -0.0000000  -0.0000000  -0.0000000  -0.0000000  -0.0000000
 NQMom=    0.0000000   0.0000000   0.0000000   0.0000000   0.0000000   0.0000000
 NMagM=    2.7928460   2.7928460   2.7928460   2.7928460   2.7928460   2.7928460
 AtZNuc=   1.0000000   1.0000000   1.0000000   1.0000000   1.0000000   1.0000000
 Leave Link  101 at Thu Jan 29 20:44:48 2026, MaxMem=  4294967296 cpu:               4.9 elap:               0.3
 (Enter /root/g16/l103.exe)

 GradGradGradGradGradGradGradGradGradGradGradGradGradGradGradGradGradGrad
 Berny optimization.
 Initialization pass.
                           ----------------------------
                           !    Initial Parameters    !
                           ! (Angstroms and Degrees)  !
 --------------------------                            --------------------------
 ! Name  Definition              Value          Derivative Info.                !
 --------------------------------------------------------------------------------
 ! R1    R(1,2)                  1.2155         calculate D2E/DX2 analytically  !
 ! R2    R(2,3)                  1.46           calculate D2E/DX2 analytically  !
 ! R3    R(2,12)                 1.5272         calculate D2E/DX2 analytically  !
 ! R4    R(3,4)                  1.3424         calculate D2E/DX2 analytically  !
 ! R5    R(3,15)                 1.0803         calculate D2E/DX2 analytically  !
 ! R6    R(4,5)                  1.4912         calculate D2E/DX2 analytically  !
 ! R7    R(4,14)                 1.5032         calculate D2E/DX2 analytically  !
 ! R8    R(5,6)                  1.5494         calculate D2E/DX2 analytically  !
 ! R9    R(5,16)                 1.09           calculate D2E/DX2 analytically  !
 ! R10   R(5,17)                 1.0906         calculate D2E/DX2 analytically  !
 ! R11   R(6,7)                  1.5401         calculate D2E/DX2 analytically  !
 ! R12   R(6,18)                 1.0899         calculate D2E/DX2 analytically  !
 ! R13   R(6,19)                 1.0901         calculate D2E/DX2 analytically  !
 ! R14   R(7,8)                  1.5107         calculate D2E/DX2 analytically  !
 ! R15   R(7,20)                 1.0918         calculate D2E/DX2 analytically  !
 ! R16   R(7,21)                 1.0884         calculate D2E/DX2 analytically  !
 ! R17   R(8,9)                  1.2093         calculate D2E/DX2 analytically  !
 ! R18   R(8,10)                 1.5175         calculate D2E/DX2 analytically  !
 ! R19   R(10,11)                1.5381         calculate D2E/DX2 analytically  !
 ! R20   R(10,14)                1.5617         calculate D2E/DX2 analytically  !
 ! R21   R(10,22)                1.0939         calculate D2E/DX2 analytically  !
 ! R22   R(11,12)                1.5596         calculate D2E/DX2 analytically  !
 ! R23   R(11,23)                1.0892         calculate D2E/DX2 analytically  !
 ! R24   R(11,24)                1.0878         calculate D2E/DX2 analytically  !
 ! R25   R(12,13)                1.4122         calculate D2E/DX2 analytically  !
 ! R26   R(12,25)                1.0905         calculate D2E/DX2 analytically  !
 ! R27   R(13,14)                1.4053         calculate D2E/DX2 analytically  !
 ! R28   R(14,26)                1.091          calculate D2E/DX2 analytically  !
 ! A1    A(1,2,3)              124.4224         calculate D2E/DX2 analytically  !
 ! A2    A(1,2,12)             122.9957         calculate D2E/DX2 analytically  !
 ! A3    A(3,2,12)             112.3636         calculate D2E/DX2 analytically  !
 ! A4    A(2,3,4)              120.2482         calculate D2E/DX2 analytically  !
 ! A5    A(2,3,15)             117.3838         calculate D2E/DX2 analytically  !
 ! A6    A(4,3,15)             122.1983         calculate D2E/DX2 analytically  !
 ! A7    A(3,4,5)              124.1121         calculate D2E/DX2 analytically  !
 ! A8    A(3,4,14)             118.5439         calculate D2E/DX2 analytically  !
 ! A9    A(5,4,14)             116.8775         calculate D2E/DX2 analytically  !
 ! A10   A(4,5,6)              110.1044         calculate D2E/DX2 analytically  !
 ! A11   A(4,5,16)             110.2762         calculate D2E/DX2 analytically  !
 ! A12   A(4,5,17)             109.4516         calculate D2E/DX2 analytically  !
 ! A13   A(6,5,16)             109.0857         calculate D2E/DX2 analytically  !
 ! A14   A(6,5,17)             109.4856         calculate D2E/DX2 analytically  !
 ! A15   A(16,5,17)            108.4088         calculate D2E/DX2 analytically  !
 ! A16   A(5,6,7)              113.9397         calculate D2E/DX2 analytically  !
 ! A17   A(5,6,18)             108.8175         calculate D2E/DX2 analytically  !
 ! A18   A(5,6,19)             109.6698         calculate D2E/DX2 analytically  !
 ! A19   A(7,6,18)             108.9782         calculate D2E/DX2 analytically  !
 ! A20   A(7,6,19)             107.1741         calculate D2E/DX2 analytically  !
 ! A21   A(18,6,19)            108.1057         calculate D2E/DX2 analytically  !
 ! A22   A(6,7,8)              111.536          calculate D2E/DX2 analytically  !
 ! A23   A(6,7,20)             107.8193         calculate D2E/DX2 analytically  !
 ! A24   A(6,7,21)             109.4999         calculate D2E/DX2 analytically  !
 ! A25   A(8,7,20)             107.7931         calculate D2E/DX2 analytically  !
 ! A26   A(8,7,21)             111.1305         calculate D2E/DX2 analytically  !
 ! A27   A(20,7,21)            108.958          calculate D2E/DX2 analytically  !
 ! A28   A(7,8,9)              121.6681         calculate D2E/DX2 analytically  !
 ! A29   A(7,8,10)             118.4427         calculate D2E/DX2 analytically  !
 ! A30   A(9,8,10)             119.8486         calculate D2E/DX2 analytically  !
 ! A31   A(8,10,11)            118.4889         calculate D2E/DX2 analytically  !
 ! A32   A(8,10,14)            113.0877         calculate D2E/DX2 analytically  !
 ! A33   A(8,10,22)            107.0617         calculate D2E/DX2 analytically  !
 ! A34   A(11,10,14)           100.8374         calculate D2E/DX2 analytically  !
 ! A35   A(11,10,22)           109.4642         calculate D2E/DX2 analytically  !
 ! A36   A(14,10,22)           107.3974         calculate D2E/DX2 analytically  !
 ! A37   A(10,11,12)           103.1496         calculate D2E/DX2 analytically  !
 ! A38   A(10,11,23)           113.286          calculate D2E/DX2 analytically  !
 ! A39   A(10,11,24)           110.8094         calculate D2E/DX2 analytically  !
 ! A40   A(12,11,23)           110.8756         calculate D2E/DX2 analytically  !
 ! A41   A(12,11,24)           110.4502         calculate D2E/DX2 analytically  !
 ! A42   A(23,11,24)           108.2312         calculate D2E/DX2 analytically  !
 ! A43   A(2,12,11)            108.637          calculate D2E/DX2 analytically  !
 ! A44   A(2,12,13)            109.1112         calculate D2E/DX2 analytically  !
 ! A45   A(2,12,25)            111.0318         calculate D2E/DX2 analytically  !
 ! A46   A(11,12,13)           105.3074         calculate D2E/DX2 analytically  !
 ! A47   A(11,12,25)           113.5476         calculate D2E/DX2 analytically  !
 ! A48   A(13,12,25)           108.9851         calculate D2E/DX2 analytically  !
 ! A49   A(12,13,14)           103.2314         calculate D2E/DX2 analytically  !
 ! A50   A(4,14,10)            108.8383         calculate D2E/DX2 analytically  !
 ! A51   A(4,14,13)            111.2533         calculate D2E/DX2 analytically  !
 ! A52   A(4,14,26)            111.977          calculate D2E/DX2 analytically  !
 ! A53   A(10,14,13)           103.126          calculate D2E/DX2 analytically  !
 ! A54   A(10,14,26)           112.9582         calculate D2E/DX2 analytically  !
 ! A55   A(13,14,26)           108.367          calculate D2E/DX2 analytically  !
 ! D1    D(1,2,3,4)           -175.402          calculate D2E/DX2 analytically  !
 ! D2    D(1,2,3,15)            -0.0341         calculate D2E/DX2 analytically  !
 ! D3    D(12,2,3,4)            -0.6446         calculate D2E/DX2 analytically  !
 ! D4    D(12,2,3,15)          174.7232         calculate D2E/DX2 analytically  !
 ! D5    D(1,2,12,11)          102.1015         calculate D2E/DX2 analytically  !
 ! D6    D(1,2,12,13)         -143.5858         calculate D2E/DX2 analytically  !
 ! D7    D(1,2,12,25)          -23.4466         calculate D2E/DX2 analytically  !
 ! D8    D(3,2,12,11)          -72.7424         calculate D2E/DX2 analytically  !
 ! D9    D(3,2,12,13)           41.5703         calculate D2E/DX2 analytically  !
 ! D10   D(3,2,12,25)          161.7094         calculate D2E/DX2 analytically  !
 ! D11   D(2,3,4,5)            164.9822         calculate D2E/DX2 analytically  !
 ! D12   D(2,3,4,14)            -6.9219         calculate D2E/DX2 analytically  !
 ! D13   D(15,3,4,5)           -10.1566         calculate D2E/DX2 analytically  !
 ! D14   D(15,3,4,14)          177.9393         calculate D2E/DX2 analytically  !
 ! D15   D(3,4,5,6)            -77.5112         calculate D2E/DX2 analytically  !
 ! D16   D(3,4,5,16)            42.9149         calculate D2E/DX2 analytically  !
 ! D17   D(3,4,5,17)           162.0919         calculate D2E/DX2 analytically  !
 ! D18   D(14,4,5,6)            94.5163         calculate D2E/DX2 analytically  !
 ! D19   D(14,4,5,16)         -145.0575         calculate D2E/DX2 analytically  !
 ! D20   D(14,4,5,17)          -25.8805         calculate D2E/DX2 analytically  !
 ! D21   D(3,4,14,10)           86.481          calculate D2E/DX2 analytically  !
 ! D22   D(3,4,14,13)          -26.4831         calculate D2E/DX2 analytically  !
 ! D23   D(3,4,14,26)         -147.9196         calculate D2E/DX2 analytically  !
 ! D24   D(5,4,14,10)          -86.0077         calculate D2E/DX2 analytically  !
 ! D25   D(5,4,14,13)          161.0282         calculate D2E/DX2 analytically  !
 ! D26   D(5,4,14,26)           39.5917         calculate D2E/DX2 analytically  !
 ! D27   D(4,5,6,7)            -20.8296         calculate D2E/DX2 analytically  !
 ! D28   D(4,5,6,18)          -142.6461         calculate D2E/DX2 analytically  !
 ! D29   D(4,5,6,19)            99.2888         calculate D2E/DX2 analytically  !
 ! D30   D(16,5,6,7)          -141.9706         calculate D2E/DX2 analytically  !
 ! D31   D(16,5,6,18)           96.2129         calculate D2E/DX2 analytically  !
 ! D32   D(16,5,6,19)          -21.8522         calculate D2E/DX2 analytically  !
 ! D33   D(17,5,6,7)            99.5468         calculate D2E/DX2 analytically  !
 ! D34   D(17,5,6,18)          -22.2697         calculate D2E/DX2 analytically  !
 ! D35   D(17,5,6,19)         -140.3348         calculate D2E/DX2 analytically  !
 ! D36   D(5,6,7,8)            -54.2954         calculate D2E/DX2 analytically  !
 ! D37   D(5,6,7,20)          -172.4544         calculate D2E/DX2 analytically  !
 ! D38   D(5,6,7,21)            69.1318         calculate D2E/DX2 analytically  !
 ! D39   D(18,6,7,8)            67.4323         calculate D2E/DX2 analytically  !
 ! D40   D(18,6,7,20)          -50.7267         calculate D2E/DX2 analytically  !
 ! D41   D(18,6,7,21)         -169.1405         calculate D2E/DX2 analytically  !
 ! D42   D(19,6,7,8)          -175.8076         calculate D2E/DX2 analytically  !
 ! D43   D(19,6,7,20)           66.0334         calculate D2E/DX2 analytically  !
 ! D44   D(19,6,7,21)          -52.3803         calculate D2E/DX2 analytically  !
 ! D45   D(6,7,8,9)            -84.5748         calculate D2E/DX2 analytically  !
 ! D46   D(6,7,8,10)            93.1051         calculate D2E/DX2 analytically  !
 ! D47   D(20,7,8,9)            33.5999         calculate D2E/DX2 analytically  !
 ! D48   D(20,7,8,10)         -148.7203         calculate D2E/DX2 analytically  !
 ! D49   D(21,7,8,9)           152.9289         calculate D2E/DX2 analytically  !
 ! D50   D(21,7,8,10)          -29.3912         calculate D2E/DX2 analytically  !
 ! D51   D(7,8,10,11)           53.3931         calculate D2E/DX2 analytically  !
 ! D52   D(7,8,10,14)          -64.2458         calculate D2E/DX2 analytically  !
 ! D53   D(7,8,10,22)          177.6664         calculate D2E/DX2 analytically  !
 ! D54   D(9,8,10,11)         -128.8835         calculate D2E/DX2 analytically  !
 ! D55   D(9,8,10,14)          113.4775         calculate D2E/DX2 analytically  !
 ! D56   D(9,8,10,22)           -4.6102         calculate D2E/DX2 analytically  !
 ! D57   D(8,10,11,12)        -135.5993         calculate D2E/DX2 analytically  !
 ! D58   D(8,10,11,23)         -15.67           calculate D2E/DX2 analytically  !
 ! D59   D(8,10,11,24)         106.1957         calculate D2E/DX2 analytically  !
 ! D60   D(14,10,11,12)        -11.6705         calculate D2E/DX2 analytically  !
 ! D61   D(14,10,11,23)        108.2588         calculate D2E/DX2 analytically  !
 ! D62   D(14,10,11,24)       -129.8755         calculate D2E/DX2 analytically  !
 ! D63   D(22,10,11,12)        101.3173         calculate D2E/DX2 analytically  !
 ! D64   D(22,10,11,23)       -138.7533         calculate D2E/DX2 analytically  !
 ! D65   D(22,10,11,24)        -16.8876         calculate D2E/DX2 analytically  !
 ! D66   D(8,10,14,4)           46.9688         calculate D2E/DX2 analytically  !
 ! D67   D(8,10,14,13)         165.1876         calculate D2E/DX2 analytically  !
 ! D68   D(8,10,14,26)         -78.0578         calculate D2E/DX2 analytically  !
 ! D69   D(11,10,14,4)         -80.5875         calculate D2E/DX2 analytically  !
 ! D70   D(11,10,14,13)         37.6313         calculate D2E/DX2 analytically  !
 ! D71   D(11,10,14,26)        154.386          calculate D2E/DX2 analytically  !
 ! D72   D(22,10,14,4)         164.8607         calculate D2E/DX2 analytically  !
 ! D73   D(22,10,14,13)        -76.9205         calculate D2E/DX2 analytically  !
 ! D74   D(22,10,14,26)         39.8341         calculate D2E/DX2 analytically  !
 ! D75   D(10,11,12,2)          99.5487         calculate D2E/DX2 analytically  !
 ! D76   D(10,11,12,13)        -17.2296         calculate D2E/DX2 analytically  !
 ! D77   D(10,11,12,25)       -136.3868         calculate D2E/DX2 analytically  !
 ! D78   D(23,11,12,2)         -22.0242         calculate D2E/DX2 analytically  !
 ! D79   D(23,11,12,13)       -138.8025         calculate D2E/DX2 analytically  !
 ! D80   D(23,11,12,25)        102.0403         calculate D2E/DX2 analytically  !
 ! D81   D(24,11,12,2)        -141.9956         calculate D2E/DX2 analytically  !
 ! D82   D(24,11,12,13)        101.2262         calculate D2E/DX2 analytically  !
 ! D83   D(24,11,12,25)        -17.931          calculate D2E/DX2 analytically  !
 ! D84   D(2,12,13,14)         -73.8575         calculate D2E/DX2 analytically  !
 ! D85   D(11,12,13,14)         42.5972         calculate D2E/DX2 analytically  !
 ! D86   D(25,12,13,14)        164.7513         calculate D2E/DX2 analytically  !
 ! D87   D(12,13,14,4)          65.894          calculate D2E/DX2 analytically  !
 ! D88   D(12,13,14,10)        -50.6224         calculate D2E/DX2 analytically  !
 ! D89   D(12,13,14,26)       -170.5856         calculate D2E/DX2 analytically  !
 --------------------------------------------------------------------------------
 Trust Radius=3.00D-01 FncErr=1.00D-07 GrdErr=1.00D-06 EigMax=2.50D+02 EigMin=1.00D-04
 Number of steps in this run=    156 maximum allowed number of steps=    156.
 GradGradGradGradGradGradGradGradGradGradGradGradGradGradGradGradGradGrad

 Leave Link  103 at Thu Jan 29 20:44:48 2026, MaxMem=  4294967296 cpu:               0.4 elap:               0.0
 (Enter /root/g16/l202.exe)
                          Input orientation:                          
 ---------------------------------------------------------------------
 Center     Atomic      Atomic             Coordinates (Angstroms)
 Number     Number       Type             X           Y           Z
 ---------------------------------------------------------------------
      1          8           0        2.903269    0.988600    1.362000
      2          6           0        2.014187    0.759078    0.565541
      3          6           0        0.791701    1.547858    0.443316
      4          6           0       -0.177855    1.165725   -0.402781
      5          6           0       -1.570425    1.698334   -0.374375
      6          6           0       -2.369279    1.039319    0.778119
      7          6           0       -1.777404   -0.296656    1.264597
      8          6           0       -1.599576   -1.272160    0.124873
      9          8           0       -2.506105   -1.976501   -0.255234
     10          6           0       -0.258435   -1.319286   -0.583522
     11          6           0        1.011103   -1.518714    0.261649
     12          6           0        2.002805   -0.473749   -0.335734
     13          8           0        1.462389   -0.122843   -1.592342
     14          6           0        0.088960    0.009911   -1.326083
     15          1           0        0.675547    2.390671    1.109015
     16          1           0       -1.558847    2.778420   -0.227914
     17          1           0       -2.060342    1.484926   -1.325071
     18          1           0       -3.393712    0.872920    0.445493
     19          1           0       -2.396627    1.710793    1.636421
     20          1           0       -2.482378   -0.736166    1.973007
     21          1           0       -0.833363   -0.111829    1.773772
     22          1           0       -0.321645   -2.108647   -1.338197
     23          1           0        0.853199   -1.340517    1.324476
     24          1           0        1.402027   -2.526543    0.139944
     25          1           0        3.011375   -0.862827   -0.479434
     26          1           0       -0.436670    0.116517   -2.276149
 ---------------------------------------------------------------------
                    Distance matrix (angstroms):
                    1          2          3          4          5
     1  O    0.000000
     2  C    1.215522   0.000000
     3  C    2.369698   1.459995   0.000000
     4  C    3.555158   2.430650   1.342365   0.000000
     5  C    4.851047   3.822968   2.504176   1.491217   0.000000
     6  C    5.305021   4.397557   3.219084   2.492558   1.549424
     7  C    4.854902   3.997427   3.267573   2.734459   2.590184
     8  C    5.188172   4.168861   3.711079   2.871061   3.012297
     9  O    6.377194   5.346972   4.876946   3.913579   3.793956
    10  C    4.371243   3.287059   3.221443   2.492878   3.297134
    11  C    3.328316   2.507363   3.079773   3.010200   4.173513
    12  C    2.414870   1.527183   2.482053   2.729039   4.181795
    13  O    3.469810   2.395564   2.717530   2.401221   3.741402
    14  C    4.012973   2.801069   2.447426   1.503190   2.551485
    15  H    2.644342   2.179315   1.080269   2.124692   2.779238
    16  H    5.063769   4.180178   2.736769   2.130376   1.090032
    17  H    5.666050   4.550062   3.356382   2.120440   1.090589
    18  H    6.364380   5.410429   4.239484   3.338718   2.162838
    19  H    5.355909   4.637653   3.408149   3.062416   2.173952
    20  H    5.687999   4.943259   4.275080   3.817378   3.502663
    21  H    3.917004   3.213541   2.676846   2.607531   2.904218
    22  H    5.223416   4.159830   4.217032   3.408400   4.120863
    23  H    3.103059   2.516381   3.020419   3.213680   4.242011
    24  H    4.012902   3.369151   4.131013   4.052581   5.191298
    25  H    2.613494   2.171850   3.404383   3.780488   5.250092
    26  H    5.015162   3.807202   3.309550   2.162713   2.721082
                    6          7          8          9         10
     6  C    0.000000
     7  C    1.540067   0.000000
     8  C    2.522322   1.510695   0.000000
     9  O    3.190879   2.379657   1.209286   0.000000
    10  C    3.445686   2.601650   1.517467   2.364683   0.000000
    11  C    4.270510   3.205480   2.625860   3.584340   1.538120
    12  C    4.758694   4.108820   3.718437   4.753422   2.426837
    13  O    4.653106   4.323028   3.693967   4.579613   2.326033
    14  C    3.395628   3.207635   2.569073   3.439028   1.561680
    15  H    3.347628   3.641827   4.422787   5.572816   4.183394
    16  H    2.166420   3.425120   4.066118   4.848434   4.313782
    17  H    2.171962   3.156021   3.148995   3.650306   3.414729
    18  H    1.089858   2.156685   2.814798   3.065626   3.961641
    19  H    1.090095   2.133434   3.437742   4.145658   4.322197
    20  H    2.143103   1.091788   2.117127   2.550304   3.438283
    21  H    2.162291   1.088409   2.156923   3.223652   2.710227
    22  H    4.310602   3.489568   2.115040   2.441749   1.093902
    23  H    4.043079   2.830778   2.731269   3.766283   2.208312
    24  H    5.229282   4.043021   3.253202   3.966385   2.176696
    25  H    5.843889   5.127826   4.668363   5.633216   3.303157
    26  H    3.730294   3.808564   3.007604   3.570348   2.226720
                   11         12         13         14         15
    11  C    0.000000
    12  C    1.559581   0.000000
    13  O    2.364191   1.412179   0.000000
    14  C    2.389129   2.208511   1.405284   0.000000
    15  H    4.014214   3.471860   3.772824   3.455691   0.000000
    16  H    5.030872   4.824271   4.405321   3.403804   2.632536
    17  H    4.579663   4.617831   3.881493   2.606755   3.772299
    18  H    5.015586   5.616603   5.359667   4.001533   4.393483
    19  H    4.892068   5.293073   5.355290   4.224638   3.190398
    20  H    3.968064   5.051338   5.352482   4.248812   4.527259
    21  H    2.769096   3.553147   4.074472   3.236448   2.996868
    22  H    2.164197   3.013452   2.681564   2.158016   5.217960
    23  H    1.089169   2.197539   3.218955   3.071348   3.741623
    24  H    1.087820   2.191156   2.963483   3.210448   5.064174
    25  H    2.231699   1.090524   2.045849   3.165279   4.308655
    26  H    3.348200   3.172485   2.032562   1.090998   4.227072
                   16         17         18         19         20
    16  H    0.000000
    17  H    1.768721   0.000000
    18  H    2.729677   2.299418   0.000000
    19  H    2.305959   2.989070   1.764800   0.000000
    20  H    4.248443   3.998585   2.398538   2.471487   0.000000
    21  H    3.589793   3.695664   3.047858   2.405121   1.774469
    22  H    5.162056   3.992119   4.637768   5.267070   4.185277
    23  H    5.019315   4.846850   4.869103   4.468687   3.451363
    24  H    6.086437   5.497831   5.886324   5.884235   4.653404
    25  H    5.848835   5.652377   6.700257   6.351916   6.017626
    26  H    3.541225   2.326673   4.089447   4.657397   4.792422
                   21         22         23         24         25
    21  H    0.000000
    22  H    3.732759   0.000000
    23  H    2.134486   3.010003   0.000000
    24  H    3.673854   2.308805   1.763799   0.000000
    25  H    4.519175   3.660405   2.853069   2.396159   0.000000
    26  H    4.075704   2.417507   4.092824   4.025428   4.009527
                   26
    26  H    0.000000
 Stoichiometry    C11H12O3
 Framework group  C1[X(C11H12O3)]
 Deg. of freedom    72
 Full point group                 C1      NOp   1
 Largest Abelian subgroup         C1      NOp   1
 Largest concise Abelian subgroup C1      NOp   1
                         Standard orientation:                         
 ---------------------------------------------------------------------
 Center     Atomic      Atomic             Coordinates (Angstroms)
 Number     Number       Type             X           Y           Z
 ---------------------------------------------------------------------
      1          8           0       -3.072747    0.837455   -1.131304
      2          6           0       -2.154376    0.522881   -0.399777
      3          6           0       -1.094084    1.429681    0.030432
      4          6           0       -0.068845    0.970895    0.765515
      5          6           0        1.204533    1.716173    0.981841
      6          6           0        2.105711    1.606528   -0.273774
      7          6           0        1.763360    0.414264   -1.186523
      8          6           0        1.768165   -0.888706   -0.422032
      9          8           0        2.788168   -1.510252   -0.233226
     10          6           0        0.459786   -1.389190    0.161376
     11          6           0       -0.755460   -1.524446   -0.771734
     12          6           0       -1.917735   -0.911420    0.068271
     13          8           0       -1.445703   -0.891557    1.399076
     14          6           0       -0.119667   -0.446532    1.263408
     15          1           0       -1.134119    2.447351   -0.329741
     16          1           0        0.997618    2.767627    1.181340
     17          1           0        1.727873    1.298765    1.842812
     18          1           0        3.144372    1.521845    0.045289
     19          1           0        2.008680    2.510546   -0.875141
     20          1           0        2.533928    0.351609   -1.957431
     21          1           0        0.799893    0.586203   -1.662761
     22          1           0        0.666856   -2.354497    0.632467
     23          1           0       -0.635623   -0.992605   -1.714640
     24          1           0       -0.957553   -2.569961   -0.994018
     25          1           0       -2.838997   -1.493517    0.027263
     26          1           0        0.380998   -0.559293    2.226163
 ---------------------------------------------------------------------
 Rotational constants (GHZ):           1.1988409           0.6677544           0.5643476
 Leave Link  202 at Thu Jan 29 20:44:48 2026, MaxMem=  4294967296 cpu:               0.3 elap:               0.0
 (Enter /root/g16/l301.exe)
 Standard basis: def2SVP (5D, 7F)
 Ernie: Thresh=  0.10000D-02 Tol=  0.10000D-05 Strict=F.
 There are   270 symmetry adapted cartesian basis functions of A   symmetry.
 There are   256 symmetry adapted basis functions of A   symmetry.
   256 basis functions,   434 primitive gaussians,   270 cartesian basis functions
    51 alpha electrons       51 beta electrons
       nuclear repulsion energy       947.8744791835 Hartrees.
 IExCor=  402 DFT=T Ex+Corr=B3LYP ExCW=0 ScaHFX=  0.200000
 ScaDFX=  0.800000  0.720000  1.000000  0.810000 ScalE2=  1.000000  1.000000
 IRadAn=      5 IRanWt=     -1 IRanGd=            0 ICorTp=0 IEmpDi=141
 NAtoms=   26 NActive=   26 NUniq=   26 SFac= 1.00D+00 NAtFMM=   60 NAOKFM=F Big=F
 Integral buffers will be    131072 words long.
 Raffenetti 2 integral format.
 Two-electron integral symmetry is turned on.
 R6Disp:  Grimme-D3(BJ) Dispersion energy=       -0.0582943045 Hartrees.
 Nuclear repulsion after empirical dispersion term =      947.8161848790 Hartrees.
 Force inversion solution in PCM.
 ------------------------------------------------------------------------------
 Polarizable Continuum Model (PCM)
 =================================
 Model                : PCM.
 Atomic radii         : UFF (Universal Force Field).
 Polarization charges : Total charges.
 Charge compensation  : None.
 Solution method      : Matrix inversion.
 Cavity type          : Scaled VdW (van der Waals Surface) (Alpha=1.100).
 Cavity algorithm     : GePol (No added spheres)
                        Default sphere list used, NSphG=   26.
                        Lebedev-Laikov grids with approx.  5.0 points / Ang**2.
                        Smoothing algorithm: York/Karplus (Gamma=1.0000).
                        Polarization charges: spherical gaussians, with
                                              point-specific exponents (IZeta= 3).
                        Self-potential: point-specific (ISelfS= 7).
                        Self-field    : sphere-specific E.n sum rule (ISelfD= 2).
 1st derivatives      : Analytical E(r).r(x)/FMM algorithm (CHGder, D1EAlg=3).
                        Cavity 1st derivative terms included.
 2nd derivatives      : Analytical E(r).r(xy)/FMM algorithm (CHGder, D2EAlg=3).
                        Cavity 2nd derivative terms included.
 Solvent              : Acetone, Eps=  20.493000 Eps(inf)=   1.846337
 ------------------------------------------------------------------------------
 GePol: Number of generator spheres                  =      26
 GePol: Total number of spheres                      =      26
 GePol: Number of exposed spheres                    =      26 (100.00%)
 GePol: Number of points                             =    1814
 GePol: Average weight of points                     =       0.13
 GePol: Minimum weight of points                     =   0.75D-09
 GePol: Maximum weight of points                     =    0.20577
 GePol: Number of points with low weight             =     136
 GePol: Fraction of low-weight points (<1% of avg)   =       7.50%
 GePol: Cavity surface area                          =    235.816 Ang**2
 GePol: Cavity volume                                =    256.138 Ang**3
 Leave Link  301 at Thu Jan 29 20:44:48 2026, MaxMem=  4294967296 cpu:               0.5 elap:               0.0
 (Enter /root/g16/l302.exe)
 NPDir=0 NMtPBC=     1 NCelOv=     1 NCel=       1 NClECP=     1 NCelD=      1
         NCelK=      1 NCelE2=     1 NClLst=     1 CellRange=     0.0.
 One-electron integrals computed using PRISM.
 One-electron integral symmetry used in STVInt
   1 Symmetry operations used in ECPInt.
 ECPInt:  NShTT=    7260 NPrTT=   26324 LenC2=    7137 LenP2D=   20012.
 LDataN:  DoStor=T MaxTD1= 4 Len=   56
 NBasis=   256 RedAO= T EigKep=  3.51D-04  NBF=   256
 NBsUse=   256 1.00D-06 EigRej= -1.00D+00 NBFU=   256
 Precomputing XC quadrature grid using
 IXCGrd= 4 IRadAn=           5 IRanWt=          -1 IRanGd=           0 AccXCQ= 0.00D+00.
 Generated NRdTot=       0 NPtTot=           0 NUsed=           0 NTot=          32
 NSgBfM=   270   270   270   270   270 MxSgAt=    26 MxSgA2=    26.
 Leave Link  302 at Thu Jan 29 20:44:48 2026, MaxMem=  4294967296 cpu:               2.0 elap:               0.1
 (Enter /root/g16/l303.exe)
 DipDrv:  MaxL=1.
 Leave Link  303 at Thu Jan 29 20:44:48 2026, MaxMem=  4294967296 cpu:               0.3 elap:               0.0
 (Enter /root/g16/l401.exe)
 ExpMin= 1.22D-01 ExpMax= 2.27D+03 ExpMxC= 3.41D+02 IAcc=3 IRadAn=         5 AccDes= 0.00D+00
 Harris functional with IExCor=  402 and IRadAn=       5 diagonalized for initial guess.
 HarFok:  IExCor=  402 AccDes= 0.00D+00 IRadAn=         5 IDoV= 1 UseB2=F ITyADJ=14
 ICtDFT=  3500011 ScaDFX=  1.000000  1.000000  1.000000  1.000000
 FoFCou: FMM=F IPFlag=           0 FMFlag=      100000 FMFlg1=           0
         NFxFlg=           0 DoJE=T BraDBF=F KetDBF=T FulRan=T
         wScrn=  0.000000 ICntrl=       500 IOpCl=  0 I1Cent=   200000004 NGrid=           0
         NMat0=    1 NMatS0=      1 NMatT0=    0 NMatD0=    1 NMtDS0=    0 NMtDT0=    0
 Petite list used in FoFCou.
 Harris En= -651.597737917997    
 JPrj=0 DoOrth=F DoCkMO=F.
 Leave Link  401 at Thu Jan 29 20:44:48 2026, MaxMem=  4294967296 cpu:               8.2 elap:               0.5
 (Enter /root/g16/l502.exe)
 Integral symmetry usage will be decided dynamically.
 Closed shell SCF:
 Using DIIS extrapolation, IDIIS=  1040.
 NGot=  4294967296 LenX=  4294814202 LenY=  4294740861
 Requested convergence on RMS density matrix=1.00D-08 within 128 cycles.
 Requested convergence on MAX density matrix=1.00D-06.
 Requested convergence on             energy=1.00D-06.
 No special actions if energy rises.
 Fock matrices will be formed incrementally for  20 cycles.

 Cycle   1  Pass 1  IDiag  1:
 FoFJK:  IHMeth= 1 ICntrl=       0 DoSepK=F KAlg= 0 I1Cent=           0 FoldK=F
 IRaf= 960000000 NMat=       1 IRICut=       1 DoRegI=T DoRafI=F ISym2E= 0 IDoP0=0 IntGTp=1.
 FoFCou: FMM=F IPFlag=           0 FMFlag=      100000 FMFlg1=           0
         NFxFlg=           0 DoJE=F BraDBF=F KetDBF=F FulRan=T
         wScrn=  0.000000 ICntrl=         0 IOpCl=  0 I1Cent=           0 NGrid=           0
         NMat0=    1 NMatS0=      1 NMatT0=    0 NMatD0=    1 NMtDS0=    0 NMtDT0=    0
 Symmetry not used in FoFCou.
 Inv3:  Mode=1 IEnd=     9871788.
 Iteration    1 A*A^-1 deviation from unit magnitude is 3.66D-15 for    361.
 Iteration    1 A*A^-1 deviation from orthogonality  is 1.96D-15 for   1461    116.
 Iteration    1 A^-1*A deviation from unit magnitude is 3.66D-15 for    361.
 Iteration    1 A^-1*A deviation from orthogonality  is 2.43D-15 for    727    260.
 E= -651.335934737258    
 DIIS: error= 2.25D-02 at cycle   1 NSaved=   1.
 NSaved= 1 IEnMin= 1 EnMin= -651.335934737258     IErMin= 1 ErrMin= 2.25D-02
 ErrMax= 2.25D-02  0.00D+00 EMaxC= 1.00D-01 BMatC= 3.02D-01 BMatP= 3.02D-01
 IDIUse=3 WtCom= 7.75D-01 WtEn= 2.25D-01
 Coeff-Com:  0.100D+01
 Coeff-En:   0.100D+01
 Coeff:      0.100D+01
 Gap=     0.152 Goal=   None    Shift=    0.000
 GapD=    0.152 DampG=1.000 DampE=0.500 DampFc=0.5000 IDamp=-1.
 Damping current iteration by 5.00D-01
 RMSDP=7.56D-03 MaxDP=3.48D-01              OVMax= 1.66D-01

 Cycle   2  Pass 1  IDiag  1:
 RMSU=  3.77D-03    CP:  9.89D-01
 E= -651.442151898560     Delta-E=       -0.106217161303 Rises=F Damp=T
 DIIS: error= 6.76D-03 at cycle   2 NSaved=   2.
 NSaved= 2 IEnMin= 2 EnMin= -651.442151898560     IErMin= 2 ErrMin= 6.76D-03
 ErrMax= 6.76D-03  0.00D+00 EMaxC= 1.00D-01 BMatC= 3.27D-02 BMatP= 3.02D-01
 IDIUse=3 WtCom= 9.32D-01 WtEn= 6.76D-02
 Coeff-Com:  0.159D+00 0.841D+00
 Coeff-En:   0.220D+00 0.780D+00
 Coeff:      0.163D+00 0.837D+00
 Gap=     0.196 Goal=   None    Shift=    0.000
 RMSDP=2.29D-03 MaxDP=1.22D-01 DE=-1.06D-01 OVMax= 1.33D-01

 Cycle   3  Pass 1  IDiag  1:
 RMSU=  2.16D-03    CP:  9.63D-01  8.67D-01
 E= -651.588186265825     Delta-E=       -0.146034367265 Rises=F Damp=F
 DIIS: error= 1.02D-02 at cycle   3 NSaved=   3.
 NSaved= 3 IEnMin= 3 EnMin= -651.588186265825     IErMin= 2 ErrMin= 6.76D-03
 ErrMax= 1.02D-02  0.00D+00 EMaxC= 1.00D-01 BMatC= 3.39D-02 BMatP= 3.27D-02
 IDIUse=3 WtCom= 8.98D-01 WtEn= 1.02D-01
 Coeff-Com:  0.247D-01 0.504D+00 0.472D+00
 Coeff-En:   0.000D+00 0.000D+00 0.100D+01
 Coeff:      0.222D-01 0.452D+00 0.525D+00
 Gap=     0.177 Goal=   None    Shift=    0.000
 RMSDP=1.24D-03 MaxDP=5.55D-02 DE=-1.46D-01 OVMax= 6.08D-02

 Cycle   4  Pass 1  IDiag  1:
 RMSU=  9.17D-04    CP:  9.72D-01  1.00D+00  7.09D-01
 E= -651.611401326334     Delta-E=       -0.023215060509 Rises=F Damp=F
 DIIS: error= 3.91D-03 at cycle   4 NSaved=   4.
 NSaved= 4 IEnMin= 4 EnMin= -651.611401326334     IErMin= 4 ErrMin= 3.91D-03
 ErrMax= 3.91D-03  0.00D+00 EMaxC= 1.00D-01 BMatC= 7.49D-03 BMatP= 3.27D-02
 IDIUse=3 WtCom= 9.61D-01 WtEn= 3.91D-02
 Coeff-Com:  0.328D-02 0.135D+00 0.334D+00 0.527D+00
 Coeff-En:   0.000D+00 0.000D+00 0.214D+00 0.786D+00
 Coeff:      0.315D-02 0.130D+00 0.329D+00 0.537D+00
 Gap=     0.180 Goal=   None    Shift=    0.000
 RMSDP=5.81D-04 MaxDP=2.71D-02 DE=-2.32D-02 OVMax= 2.43D-02

 Cycle   5  Pass 1  IDiag  1:
 RMSU=  2.28D-04    CP:  9.69D-01  9.28D-01  7.75D-01  5.41D-01
 E= -651.617685115073     Delta-E=       -0.006283788739 Rises=F Damp=F
 DIIS: error= 4.26D-04 at cycle   5 NSaved=   5.
 NSaved= 5 IEnMin= 5 EnMin= -651.617685115073     IErMin= 5 ErrMin= 4.26D-04
 ErrMax= 4.26D-04  0.00D+00 EMaxC= 1.00D-01 BMatC= 1.61D-04 BMatP= 7.49D-03
 IDIUse=3 WtCom= 9.96D-01 WtEn= 4.26D-03
 Coeff-Com: -0.281D-04 0.182D-01 0.105D+00 0.231D+00 0.646D+00
 Coeff-En:   0.000D+00 0.000D+00 0.000D+00 0.000D+00 0.100D+01
 Coeff:     -0.280D-04 0.181D-01 0.104D+00 0.230D+00 0.647D+00
 Gap=     0.178 Goal=   None    Shift=    0.000
 RMSDP=9.47D-05 MaxDP=3.63D-03 DE=-6.28D-03 OVMax= 9.00D-03

 Cycle   6  Pass 1  IDiag  1:
 RMSU=  5.45D-05    CP:  9.69D-01  9.36D-01  7.76D-01  5.86D-01  7.52D-01
 E= -651.617802727518     Delta-E=       -0.000117612445 Rises=F Damp=F
 DIIS: error= 2.21D-04 at cycle   6 NSaved=   6.
 NSaved= 6 IEnMin= 6 EnMin= -651.617802727518     IErMin= 6 ErrMin= 2.21D-04
 ErrMax= 2.21D-04  0.00D+00 EMaxC= 1.00D-01 BMatC= 4.30D-05 BMatP= 1.61D-04
 IDIUse=3 WtCom= 9.98D-01 WtEn= 2.21D-03
 Coeff-Com: -0.148D-03-0.683D-03 0.359D-01 0.948D-01 0.405D+00 0.465D+00
 Coeff-En:   0.000D+00 0.000D+00 0.000D+00 0.000D+00 0.211D+00 0.789D+00
 Coeff:     -0.147D-03-0.682D-03 0.358D-01 0.946D-01 0.405D+00 0.466D+00
 Gap=     0.178 Goal=   None    Shift=    0.000
 RMSDP=3.22D-05 MaxDP=1.70D-03 DE=-1.18D-04 OVMax= 3.87D-03

 Cycle   7  Pass 1  IDiag  1:
 RMSU=  1.50D-05    CP:  9.69D-01  9.36D-01  7.79D-01  5.85D-01  7.70D-01
                    CP:  4.95D-01
 E= -651.617845988847     Delta-E=       -0.000043261329 Rises=F Damp=F
 DIIS: error= 4.89D-05 at cycle   7 NSaved=   7.
 NSaved= 7 IEnMin= 7 EnMin= -651.617845988847     IErMin= 7 ErrMin= 4.89D-05
 ErrMax= 4.89D-05  0.00D+00 EMaxC= 1.00D-01 BMatC= 1.58D-06 BMatP= 4.30D-05
 IDIUse=1 WtCom= 1.00D+00 WtEn= 0.00D+00
 Coeff-Com: -0.255D-04-0.157D-02 0.116D-01 0.323D-01 0.165D+00 0.238D+00
 Coeff-Com:  0.555D+00
 Coeff:     -0.255D-04-0.157D-02 0.116D-01 0.323D-01 0.165D+00 0.238D+00
 Coeff:      0.555D+00
 Gap=     0.178 Goal=   None    Shift=    0.000
 RMSDP=7.43D-06 MaxDP=2.54D-04 DE=-4.33D-05 OVMax= 4.34D-04

 Cycle   8  Pass 1  IDiag  1:
 RMSU=  4.46D-06    CP:  9.69D-01  9.35D-01  7.80D-01  5.87D-01  7.70D-01
                    CP:  5.14D-01  6.62D-01
 E= -651.617847400746     Delta-E=       -0.000001411899 Rises=F Damp=F
 DIIS: error= 1.25D-05 at cycle   8 NSaved=   8.
 NSaved= 8 IEnMin= 8 EnMin= -651.617847400746     IErMin= 8 ErrMin= 1.25D-05
 ErrMax= 1.25D-05  0.00D+00 EMaxC= 1.00D-01 BMatC= 1.18D-07 BMatP= 1.58D-06
 IDIUse=1 WtCom= 1.00D+00 WtEn= 0.00D+00
 Coeff-Com:  0.441D-04-0.757D-03 0.203D-02 0.550D-02 0.383D-01 0.647D-01
 Coeff-Com:  0.254D+00 0.636D+00
 Coeff:      0.441D-04-0.757D-03 0.203D-02 0.550D-02 0.383D-01 0.647D-01
 Coeff:      0.254D+00 0.636D+00
 Gap=     0.178 Goal=   None    Shift=    0.000
 RMSDP=2.33D-06 MaxDP=1.16D-04 DE=-1.41D-06 OVMax= 6.99D-05

 Cycle   9  Pass 1  IDiag  1:
 RMSU=  1.60D-06    CP:  9.69D-01  9.35D-01  7.80D-01  5.86D-01  7.74D-01
                    CP:  5.20D-01  6.86D-01  7.58D-01
 E= -651.617847489080     Delta-E=       -0.000000088334 Rises=F Damp=F
 DIIS: error= 7.33D-06 at cycle   9 NSaved=   9.
 NSaved= 9 IEnMin= 9 EnMin= -651.617847489080     IErMin= 9 ErrMin= 7.33D-06
 ErrMax= 7.33D-06  0.00D+00 EMaxC= 1.00D-01 BMatC= 2.10D-08 BMatP= 1.18D-07
 IDIUse=1 WtCom= 1.00D+00 WtEn= 0.00D+00
 Coeff-Com:  0.332D-04-0.337D-03 0.368D-03 0.803D-03 0.104D-01 0.190D-01
 Coeff-Com:  0.103D+00 0.369D+00 0.497D+00
 Coeff:      0.332D-04-0.337D-03 0.368D-03 0.803D-03 0.104D-01 0.190D-01
 Coeff:      0.103D+00 0.369D+00 0.497D+00
 Gap=     0.178 Goal=   None    Shift=    0.000
 RMSDP=8.77D-07 MaxDP=4.62D-05 DE=-8.83D-08 OVMax= 2.82D-05

 Cycle  10  Pass 1  IDiag  1:
 RMSU=  5.34D-07    CP:  9.69D-01  9.35D-01  7.80D-01  5.86D-01  7.74D-01
                    CP:  5.20D-01  6.93D-01  8.01D-01  6.27D-01
 E= -651.617847503610     Delta-E=       -0.000000014530 Rises=F Damp=F
 DIIS: error= 3.12D-06 at cycle  10 NSaved=  10.
 NSaved=10 IEnMin=10 EnMin= -651.617847503610     IErMin=10 ErrMin= 3.12D-06
 ErrMax= 3.12D-06  0.00D+00 EMaxC= 1.00D-01 BMatC= 2.67D-09 BMatP= 2.10D-08
 IDIUse=1 WtCom= 1.00D+00 WtEn= 0.00D+00
 Coeff-Com:  0.156D-04-0.745D-04-0.145D-03-0.567D-03-0.606D-03-0.746D-03
 Coeff-Com:  0.166D-01 0.109D+00 0.293D+00 0.584D+00
 Coeff:      0.156D-04-0.745D-04-0.145D-03-0.567D-03-0.606D-03-0.746D-03
 Coeff:      0.166D-01 0.109D+00 0.293D+00 0.584D+00
 Gap=     0.178 Goal=   None    Shift=    0.000
 RMSDP=3.15D-07 MaxDP=1.70D-05 DE=-1.45D-08 OVMax= 1.16D-05

 Cycle  11  Pass 1  IDiag  1:
 RMSU=  1.76D-07    CP:  9.69D-01  9.35D-01  7.80D-01  5.86D-01  7.74D-01
                    CP:  5.20D-01  6.96D-01  8.19D-01  6.88D-01  6.57D-01
 E= -651.617847505647     Delta-E=       -0.000000002037 Rises=F Damp=F
 DIIS: error= 6.21D-07 at cycle  11 NSaved=  11.
 NSaved=11 IEnMin=11 EnMin= -651.617847505647     IErMin=11 ErrMin= 6.21D-07
 ErrMax= 6.21D-07  0.00D+00 EMaxC= 1.00D-01 BMatC= 2.05D-10 BMatP= 2.67D-09
 IDIUse=1 WtCom= 1.00D+00 WtEn= 0.00D+00
 Coeff-Com:  0.632D-05-0.134D-04-0.916D-04-0.339D-03-0.977D-03-0.188D-02
 Coeff-Com:  0.825D-03 0.261D-01 0.110D+00 0.302D+00 0.565D+00
 Coeff:      0.632D-05-0.134D-04-0.916D-04-0.339D-03-0.977D-03-0.188D-02
 Coeff:      0.825D-03 0.261D-01 0.110D+00 0.302D+00 0.565D+00
 Gap=     0.178 Goal=   None    Shift=    0.000
 RMSDP=9.03D-08 MaxDP=4.18D-06 DE=-2.04D-09 OVMax= 3.23D-06

 Cycle  12  Pass 1  IDiag  1:
 RMSU=  6.42D-08    CP:  9.69D-01  9.35D-01  7.80D-01  5.86D-01  7.74D-01
                    CP:  5.19D-01  6.96D-01  8.22D-01  6.90D-01  7.08D-01
                    CP:  7.73D-01
 E= -651.617847505802     Delta-E=       -0.000000000154 Rises=F Damp=F
 DIIS: error= 1.67D-07 at cycle  12 NSaved=  12.
 NSaved=12 IEnMin=12 EnMin= -651.617847505802     IErMin=12 ErrMin= 1.67D-07
 ErrMax= 1.67D-07  0.00D+00 EMaxC= 1.00D-01 BMatC= 2.44D-11 BMatP= 2.05D-10
 IDIUse=1 WtCom= 1.00D+00 WtEn= 0.00D+00
 Coeff-Com:  0.134D-05 0.180D-05-0.276D-04-0.106D-03-0.422D-03-0.948D-03
 Coeff-Com: -0.171D-02-0.141D-02 0.186D-01 0.816D-01 0.299D+00 0.605D+00
 Coeff:      0.134D-05 0.180D-05-0.276D-04-0.106D-03-0.422D-03-0.948D-03
 Coeff:     -0.171D-02-0.141D-02 0.186D-01 0.816D-01 0.299D+00 0.605D+00
 Gap=     0.178 Goal=   None    Shift=    0.000
 RMSDP=2.89D-08 MaxDP=9.64D-07 DE=-1.54D-10 OVMax= 8.27D-07

 Cycle  13  Pass 1  IDiag  1:
 RMSU=  1.55D-08    CP:  9.69D-01  9.35D-01  7.80D-01  5.86D-01  7.74D-01
                    CP:  5.19D-01  6.96D-01  8.23D-01  6.95D-01  7.18D-01
                    CP:  8.13D-01  7.65D-01
 E= -651.617847505816     Delta-E=       -0.000000000014 Rises=F Damp=F
 DIIS: error= 3.64D-08 at cycle  13 NSaved=  13.
 NSaved=13 IEnMin=13 EnMin= -651.617847505816     IErMin=13 ErrMin= 3.64D-08
 ErrMax= 3.64D-08  0.00D+00 EMaxC= 1.00D-01 BMatC= 1.42D-12 BMatP= 2.44D-11
 IDIUse=1 WtCom= 1.00D+00 WtEn= 0.00D+00
 Coeff-Com:  0.236D-06 0.146D-05-0.431D-05-0.214D-04-0.100D-03-0.278D-03
 Coeff-Com: -0.721D-03-0.254D-02 0.409D-04 0.140D-01 0.926D-01 0.269D+00
 Coeff-Com:  0.628D+00
 Coeff:      0.236D-06 0.146D-05-0.431D-05-0.214D-04-0.100D-03-0.278D-03
 Coeff:     -0.721D-03-0.254D-02 0.409D-04 0.140D-01 0.926D-01 0.269D+00
 Coeff:      0.628D+00
 Gap=     0.178 Goal=   None    Shift=    0.000
 RMSDP=7.25D-09 MaxDP=2.20D-07 DE=-1.40D-11 OVMax= 4.04D-07

 Error on total polarization charges =  0.00858
 SCF Done:  E(RB3LYP) =  -651.617847506     A.U. after   13 cycles
            NFock= 13  Conv=0.72D-08     -V/T= 2.0094
 KE= 6.455398500590D+02 PE=-3.412335270516D+03 EE= 1.167361388072D+03
 Leave Link  502 at Thu Jan 29 20:45:06 2026, MaxMem=  4294967296 cpu:             277.0 elap:              17.6
 (Enter /root/g16/l801.exe)
 DoSCS=F DFT=T ScalE2(SS,OS)=  1.000000  1.000000
 Range of M.O.s used for correlation:     1   256
 NBasis=   256 NAE=    51 NBE=    51 NFC=     0 NFV=     0
 NROrb=    256 NOA=    51 NOB=    51 NVA=   205 NVB=   205

 **** Warning!!: The largest alpha MO coefficient is  0.10140531D+02

 Leave Link  801 at Thu Jan 29 20:45:06 2026, MaxMem=  4294967296 cpu:               0.1 elap:               0.0
 (Enter /root/g16/l1101.exe)
 Using compressed storage, NAtomX=    26.
 Will process     27 centers per pass.
   1 Symmetry operations used in ECPInt.
 ECPInt:  NShTT=    7260 NPrTT=   26324 LenC2=    7137 LenP2D=   20012.
 LDataN:  DoStor=T MaxTD1= 5 Len=  102
 R6Disp: Adding Grimme-D3(BJ) dispersion energy 1st derivatives to the gradient.
 Leave Link 1101 at Thu Jan 29 20:45:06 2026, MaxMem=  4294967296 cpu:               3.6 elap:               0.2
 (Enter /root/g16/l1102.exe)
 Symmetrizing basis deriv contribution to polar:
 IMax=3 JMax=2 DiffMx= 0.00D+00
 Leave Link 1102 at Thu Jan 29 20:45:06 2026, MaxMem=  4294967296 cpu:               0.3 elap:               0.0
 (Enter /root/g16/l1110.exe)
 Forming Gx(P) for the SCF density, NAtomX=    26.
 Integral derivatives from FoFJK, PRISM(SPDF).
 Do as many integral derivatives as possible in FoFJK.
 G2DrvN: MDV=    4294965288.
 G2DrvN: will do    27 centers at a time, making    1 passes.
 Calling FoFCou, ICntrl=  3107 FMM=F I1Cent=   0 AccDes= 0.00D+00.
 FoFJK:  IHMeth= 1 ICntrl=    3107 DoSepK=F KAlg= 0 I1Cent=           0 FoldK=F
 IRaf=         0 NMat=       1 IRICut=       1 DoRegI=T DoRafI=F ISym2E= 0 IDoP0=0 IntGTp=1.
 FoFCou: FMM=F IPFlag=           0 FMFlag=      100000 FMFlg1=           0
         NFxFlg=           0 DoJE=F BraDBF=F KetDBF=F FulRan=T
         wScrn=  0.000000 ICntrl=      3107 IOpCl=  0 I1Cent=           0 NGrid=           0
         NMat0=    1 NMatS0=      1 NMatT0=    0 NMatD0=    1 NMtDS0=    0 NMtDT0=    0
 Symmetry not used in FoFCou.
 NEqPCM:  Using equilibrium solvation (IEInf=0, Eps=  20.4930, EpsInf=   1.8463)
 G2PCM: DoFxE=T DoFxN=T DoGrad=T DoDP/DQ/DG/TGxP=FFFF NFrqRd=   0 IEInf=0 SqF1=F DoCFld=F IF1Alg=4.
 GePol: Maximum number of non-zero 1st derivatives   =     229
 End of G2Drv F.D. properties file   721 does not exist.
 End of G2Drv F.D. properties file   722 does not exist.
 End of G2Drv F.D. properties file   788 does not exist.
 Leave Link 1110 at Thu Jan 29 20:45:32 2026, MaxMem=  4294967296 cpu:             414.8 elap:              25.9
 (Enter /root/g16/l1002.exe)
 Minotr:  Closed shell wavefunction.
          IDoAtm=11111111111111111111111111
 NEqPCM:  Using equilibrium solvation (IEInf=0, Eps=  20.4930, EpsInf=   1.8463)
          Direct CPHF calculation.
          Differentiating once with respect to nuclear coordinates.
          Requested convergence is 1.0D-08 RMS, and 1.0D-07 maximum.
          Secondary convergence is 1.0D-12 RMS, and 1.0D-12 maximum.
          NewPWx=T KeepS1=F KeepF1=F KeepIn=T MapXYZ=F SortEE=F KeepMc=T.
         7749 words used for storage of precomputed grid.
 Keep R1 ints in memory in canonical form, NReq=558668821.
 FoFCou: FMM=F IPFlag=           0 FMFlag=           0 FMFlg1=           0
         NFxFlg=           0 DoJE=F BraDBF=F KetDBF=F FulRan=T
         wScrn=  0.000000 ICntrl=       600 IOpCl=  0 I1Cent=           0 NGrid=           0
         NMat0=    1 NMatS0=  32896 NMatT0=    0 NMatD0=    1 NMtDS0=    0 NMtDT0=    0
 Symmetry not used in FoFCou.
 Two-electron integral symmetry not used.
          MDV=    4294967296 using IRadAn=       1.
          Solving linear equations simultaneously, MaxMat=       0.
          There are    81 degrees of freedom in the 1st order CPHF.  IDoFFX=6 NUNeed=     0.
     75 vectors produced by pass  0 Test12= 1.29D-14 1.23D-09 XBig12= 1.70D-01 1.03D-01.
 AX will form    75 AO Fock derivatives at one time.
     75 vectors produced by pass  1 Test12= 1.29D-14 1.23D-09 XBig12= 3.69D-02 6.73D-02.
     75 vectors produced by pass  2 Test12= 1.29D-14 1.23D-09 XBig12= 3.80D-04 2.41D-03.
     75 vectors produced by pass  3 Test12= 1.29D-14 1.23D-09 XBig12= 1.68D-06 1.59D-04.
     75 vectors produced by pass  4 Test12= 1.29D-14 1.23D-09 XBig12= 4.83D-09 5.62D-06.
     51 vectors produced by pass  5 Test12= 1.29D-14 1.23D-09 XBig12= 5.67D-12 1.84D-07.
     12 vectors produced by pass  6 Test12= 1.29D-14 1.23D-09 XBig12= 5.33D-15 6.37D-09.
 InvSVY:  IOpt=1 It=  1 EMax= 5.55D-16
 Solved reduced A of dimension   438 with    81 vectors.
 End of Minotr F.D. properties file   721 does not exist.
 End of Minotr F.D. properties file   722 does not exist.
 End of Minotr F.D. properties file   788 does not exist.
 Leave Link 1002 at Thu Jan 29 20:46:04 2026, MaxMem=  4294967296 cpu:             514.5 elap:              32.2
 (Enter /root/g16/l601.exe)
 Copying SCF densities to generalized density rwf, IOpCl= 0 IROHF=0.

 **********************************************************************

            Population analysis using the SCF density.

 **********************************************************************

 Orbital symmetries:
       Occupied  (A) (A) (A) (A) (A) (A) (A) (A) (A) (A) (A) (A)
                 (A) (A) (A) (A) (A) (A) (A) (A) (A) (A) (A) (A)
                 (A) (A) (A) (A) (A) (A) (A) (A) (A) (A) (A) (A)
                 (A) (A) (A) (A) (A) (A) (A) (A) (A) (A) (A) (A)
                 (A) (A) (A)
       Virtual   (A) (A) (A) (A) (A) (A) (A) (A) (A) (A) (A) (A)
                 (A) (A) (A) (A) (A) (A) (A) (A) (A) (A) (A) (A)
                 (A) (A) (A) (A) (A) (A) (A) (A) (A) (A) (A) (A)
                 (A) (A) (A) (A) (A) (A) (A) (A) (A) (A) (A) (A)
                 (A) (A) (A) (A) (A) (A) (A) (A) (A) (A) (A) (A)
                 (A) (A) (A) (A) (A) (A) (A) (A) (A) (A) (A) (A)
                 (A) (A) (A) (A) (A) (A) (A) (A) (A) (A) (A) (A)
                 (A) (A) (A) (A) (A) (A) (A) (A) (A) (A) (A) (A)
                 (A) (A) (A) (A) (A) (A) (A) (A) (A) (A) (A) (A)
                 (A) (A) (A) (A) (A) (A) (A) (A) (A) (A) (A) (A)
                 (A) (A) (A) (A) (A) (A) (A) (A) (A) (A) (A) (A)
                 (A) (A) (A) (A) (A) (A) (A) (A) (A) (A) (A) (A)
                 (A) (A) (A) (A) (A) (A) (A) (A) (A) (A) (A) (A)
                 (A) (A) (A) (A) (A) (A) (A) (A) (A) (A) (A) (A)
                 (A) (A) (A) (A) (A) (A) (A) (A) (A) (A) (A) (A)
                 (A) (A) (A) (A) (A) (A) (A) (A) (A) (A) (A) (A)
                 (A) (A) (A) (A) (A) (A) (A) (A) (A) (A) (A) (A)
                 (A)
 The electronic state is 1-A.
 Alpha  occ. eigenvalues --  -19.15502 -19.13595 -19.12831 -10.28288 -10.27404
 Alpha  occ. eigenvalues --  -10.26003 -10.24647 -10.22407 -10.20975 -10.20517
 Alpha  occ. eigenvalues --  -10.20260 -10.20122 -10.19523 -10.19438  -1.07219
 Alpha  occ. eigenvalues --   -1.04553  -1.03289  -0.85562  -0.80106  -0.78890
 Alpha  occ. eigenvalues --   -0.77068  -0.72158  -0.64497  -0.64199  -0.63162
 Alpha  occ. eigenvalues --   -0.57952  -0.54730  -0.53671  -0.51906  -0.50660
 Alpha  occ. eigenvalues --   -0.49385  -0.46961  -0.45699  -0.44999  -0.44281
 Alpha  occ. eigenvalues --   -0.43293  -0.42547  -0.41820  -0.40883  -0.39454
 Alpha  occ. eigenvalues --   -0.39077  -0.38091  -0.36440  -0.35887  -0.35250
 Alpha  occ. eigenvalues --   -0.34919  -0.33674  -0.30392  -0.27599  -0.25958
 Alpha  occ. eigenvalues --   -0.24485
 Alpha virt. eigenvalues --   -0.06656  -0.03547   0.03364   0.05420   0.06369
 Alpha virt. eigenvalues --    0.07806   0.09526   0.10210   0.10849   0.11770
 Alpha virt. eigenvalues --    0.12811   0.13324   0.13662   0.15166   0.16214
 Alpha virt. eigenvalues --    0.17315   0.18204   0.19466   0.20992   0.21672
 Alpha virt. eigenvalues --    0.22227   0.24172   0.24911   0.25747   0.27469
 Alpha virt. eigenvalues --    0.29272   0.30516   0.31726   0.34702   0.35741
 Alpha virt. eigenvalues --    0.38400   0.39511   0.41678   0.44396   0.45497
 Alpha virt. eigenvalues --    0.47044   0.47932   0.49009   0.50673   0.51030
 Alpha virt. eigenvalues --    0.51718   0.54046   0.55875   0.56364   0.56770
 Alpha virt. eigenvalues --    0.57627   0.58561   0.59642   0.60661   0.61052
 Alpha virt. eigenvalues --    0.61729   0.62913   0.63568   0.64769   0.65261
 Alpha virt. eigenvalues --    0.65730   0.66065   0.66581   0.67148   0.67791
 Alpha virt. eigenvalues --    0.68198   0.68986   0.69329   0.70001   0.70565
 Alpha virt. eigenvalues --    0.70981   0.72520   0.74281   0.75241   0.76962
 Alpha virt. eigenvalues --    0.77627   0.78449   0.80449   0.82361   0.85137
 Alpha virt. eigenvalues --    0.86725   0.88014   0.89542   0.93196   0.94520
 Alpha virt. eigenvalues --    0.98911   1.01436   1.03381   1.05620   1.09374
 Alpha virt. eigenvalues --    1.10313   1.12067   1.14228   1.14948   1.16848
 Alpha virt. eigenvalues --    1.18872   1.20534   1.22552   1.26382   1.28502
 Alpha virt. eigenvalues --    1.32120   1.35046   1.37839   1.39110   1.39813
 Alpha virt. eigenvalues --    1.40117   1.41821   1.44058   1.47584   1.50808
 Alpha virt. eigenvalues --    1.54468   1.55064   1.56441   1.59741   1.61458
 Alpha virt. eigenvalues --    1.64083   1.65224   1.67339   1.69433   1.70429
 Alpha virt. eigenvalues --    1.71439   1.72460   1.73246   1.73882   1.76458
 Alpha virt. eigenvalues --    1.76793   1.77206   1.79417   1.80574   1.81120
 Alpha virt. eigenvalues --    1.81489   1.82591   1.83659   1.84803   1.85699
 Alpha virt. eigenvalues --    1.87358   1.88038   1.88854   1.90544   1.91924
 Alpha virt. eigenvalues --    1.92690   1.93420   1.94268   1.96231   1.97327
 Alpha virt. eigenvalues --    1.99967   2.01101   2.02681   2.04149   2.06430
 Alpha virt. eigenvalues --    2.07978   2.09984   2.12499   2.13410   2.14530
 Alpha virt. eigenvalues --    2.16995   2.20607   2.22518   2.23508   2.26523
 Alpha virt. eigenvalues --    2.28253   2.28847   2.31617   2.33804   2.35021
 Alpha virt. eigenvalues --    2.37257   2.39189   2.40962   2.43968   2.45975
 Alpha virt. eigenvalues --    2.47917   2.49428   2.53914   2.56967   2.57497
 Alpha virt. eigenvalues --    2.59872   2.61480   2.63294   2.65297   2.67858
 Alpha virt. eigenvalues --    2.70051   2.71610   2.71958   2.75283   2.75987
 Alpha virt. eigenvalues --    2.77917   2.83239   2.84028   2.87652   2.88969
 Alpha virt. eigenvalues --    2.91105   2.92966   2.93939   2.97352   2.98902
 Alpha virt. eigenvalues --    3.01587   3.02632   3.05728   3.06483   3.09308
 Alpha virt. eigenvalues --    3.14327   3.16071   3.17431   3.21990   3.31292
 Alpha virt. eigenvalues --    3.38126   3.40770   3.57407   3.62594   3.63928
          Condensed to atoms (all electrons):
               1          2          3          4          5          6
     1  O    7.661459   0.729378  -0.098042   0.007175  -0.000096   0.000008
     2  C    0.729378   4.880192   0.153165   0.097233   0.008591  -0.000581
     3  C   -0.098042   0.153165   5.588953   0.179621  -0.045463  -0.016717
     4  C    0.007175   0.097233   0.179621   5.615073   0.333445  -0.027395
     5  C   -0.000096   0.008591  -0.045463   0.333445   4.673549   0.372668
     6  C    0.000008  -0.000581  -0.016717  -0.027395   0.372668   4.567384
     7  C    0.000021   0.000338  -0.010110  -0.001650  -0.061027   0.413476
     8  C   -0.000011   0.002182  -0.004968   0.013654  -0.018650  -0.011688
     9  O   -0.000000  -0.000020   0.000037  -0.000112  -0.001433   0.000898
    10  C    0.000233  -0.013475  -0.003150  -0.092520   0.014781  -0.004830
    11  C    0.000365  -0.055876   0.036484  -0.059526  -0.001877   0.000660
    12  C   -0.087192   0.227599  -0.169773   0.013926  -0.001522   0.000148
    13  O    0.001438  -0.022989   0.004179  -0.056771   0.004726  -0.000092
    14  C    0.000533  -0.053040   0.012687   0.175187  -0.061991  -0.000116
    15  H    0.005329  -0.050195   0.410152  -0.056950  -0.020254   0.001551
    16  H   -0.000002   0.000748  -0.020441   0.018386   0.323191   0.004826
    17  H    0.000001  -0.000930   0.014988  -0.007860   0.336878  -0.006553
    18  H   -0.000000   0.000067  -0.000804   0.006782  -0.018252   0.355015
    19  H   -0.000003  -0.000343   0.008430  -0.011784   0.004128   0.349690
    20  H   -0.000000  -0.000028   0.000463  -0.000597   0.010631   0.002030
    21  H    0.000006   0.001764  -0.012071   0.035015  -0.027724   0.011108
    22  H   -0.000008   0.000477  -0.000596   0.011962  -0.000137  -0.000804
    23  H    0.002463   0.000008  -0.002195   0.001206   0.001176  -0.000067
    24  H   -0.000227   0.004081  -0.001357   0.001881  -0.000089  -0.000007
    25  H    0.008941  -0.020013   0.015472  -0.000107   0.000125  -0.000005
    26  H    0.000015   0.000315   0.008793  -0.036711  -0.006745  -0.000404
               7          8          9         10         11         12
     1  O    0.000021  -0.000011  -0.000000   0.000233   0.000365  -0.087192
     2  C    0.000338   0.002182  -0.000020  -0.013475  -0.055876   0.227599
     3  C   -0.010110  -0.004968   0.000037  -0.003150   0.036484  -0.169773
     4  C   -0.001650   0.013654  -0.000112  -0.092520  -0.059526   0.013926
     5  C   -0.061027  -0.018650  -0.001433   0.014781  -0.001877  -0.001522
     6  C    0.413476  -0.011688   0.000898  -0.004830   0.000660   0.000148
     7  C    4.901867   0.303767  -0.096561  -0.206767   0.013854  -0.003526
     8  C    0.303767   4.850424   0.730535   0.188191  -0.034052   0.006322
     9  O   -0.096561   0.730535   7.653102  -0.102914   0.003369  -0.000141
    10  C   -0.206767   0.188191  -0.102914   5.502363   0.251237  -0.063886
    11  C    0.013854  -0.034052   0.003369   0.251237   4.855259   0.293267
    12  C   -0.003526   0.006322  -0.000141  -0.063886   0.293267   5.116240
    13  O    0.000162   0.004583  -0.000015  -0.033201  -0.088131   0.283812
    14  C    0.004561  -0.025101   0.002623   0.287691   0.009428  -0.072637
    15  H   -0.001113   0.000333   0.000001  -0.000685  -0.001219   0.017864
    16  H    0.005959  -0.000260  -0.000002  -0.000613   0.000039  -0.000210
    17  H   -0.007885   0.006940   0.000235  -0.001821   0.000311   0.000349
    18  H   -0.014424  -0.008510   0.005580   0.000936  -0.000052  -0.000027
    19  H   -0.007607   0.006327  -0.000184  -0.000202  -0.000004   0.000074
    20  H    0.305288   0.007379   0.004152   0.015612  -0.000815   0.000115
    21  H    0.308490   0.001942   0.004523   0.004995  -0.000361  -0.001060
    22  H    0.017829   0.007520   0.011974   0.262972   0.001933  -0.004815
    23  H    0.006165  -0.015772  -0.000043   0.016408   0.332723  -0.011562
    24  H   -0.001189   0.005476   0.000045   0.016469   0.305422   0.022090
    25  H    0.000026  -0.000532   0.000002   0.004847  -0.000073   0.316457
    26  H    0.000002  -0.002181   0.000710  -0.018028   0.013736   0.002624
              13         14         15         16         17         18
     1  O    0.001438   0.000533   0.005329  -0.000002   0.000001  -0.000000
     2  C   -0.022989  -0.053040  -0.050195   0.000748  -0.000930   0.000067
     3  C    0.004179   0.012687   0.410152  -0.020441   0.014988  -0.000804
     4  C   -0.056771   0.175187  -0.056950   0.018386  -0.007860   0.006782
     5  C    0.004726  -0.061991  -0.020254   0.323191   0.336878  -0.018252
     6  C   -0.000092  -0.000116   0.001551   0.004826  -0.006553   0.355015
     7  C    0.000162   0.004561  -0.001113   0.005959  -0.007885  -0.014424
     8  C    0.004583  -0.025101   0.000333  -0.000260   0.006940  -0.008510
     9  O   -0.000015   0.002623   0.000001  -0.000002   0.000235   0.005580
    10  C   -0.033201   0.287691  -0.000685  -0.000613  -0.001821   0.000936
    11  C   -0.088131   0.009428  -0.001219   0.000039   0.000311  -0.000052
    12  C    0.283812  -0.072637   0.017864  -0.000210   0.000349  -0.000027
    13  O    7.987295   0.294688  -0.000841  -0.000192   0.000203   0.000005
    14  C    0.294688   4.882978   0.009192   0.009109  -0.011529   0.000124
    15  H   -0.000841   0.009192   0.695877   0.004623   0.000284  -0.000062
    16  H   -0.000192   0.009109   0.004623   0.670307  -0.027652   0.003452
    17  H    0.000203  -0.011529   0.000284  -0.027652   0.696731  -0.019533
    18  H    0.000005   0.000124  -0.000062   0.003452  -0.019533   0.694457
    19  H    0.000004  -0.001021   0.000061  -0.020246   0.007803  -0.026408
    20  H    0.000003   0.000116  -0.000040  -0.000398  -0.000072  -0.008622
    21  H    0.000003  -0.007537   0.001455   0.001142  -0.000519   0.009456
    22  H    0.002521  -0.004373   0.000027   0.000023  -0.000056  -0.000051
    23  H    0.004402  -0.011911  -0.000629  -0.000024  -0.000021  -0.000022
    24  H    0.002332  -0.000526   0.000047   0.000001   0.000002   0.000004
    25  H   -0.018012   0.003957  -0.000539  -0.000001   0.000000  -0.000000
    26  H   -0.021721   0.371652  -0.000343  -0.000123   0.008042  -0.000083
              19         20         21         22         23         24
     1  O   -0.000003  -0.000000   0.000006  -0.000008   0.002463  -0.000227
     2  C   -0.000343  -0.000028   0.001764   0.000477   0.000008   0.004081
     3  C    0.008430   0.000463  -0.012071  -0.000596  -0.002195  -0.001357
     4  C   -0.011784  -0.000597   0.035015   0.011962   0.001206   0.001881
     5  C    0.004128   0.010631  -0.027724  -0.000137   0.001176  -0.000089
     6  C    0.349690   0.002030   0.011108  -0.000804  -0.000067  -0.000007
     7  C   -0.007607   0.305288   0.308490   0.017829   0.006165  -0.001189
     8  C    0.006327   0.007379   0.001942   0.007520  -0.015772   0.005476
     9  O   -0.000184   0.004152   0.004523   0.011974  -0.000043   0.000045
    10  C   -0.000202   0.015612   0.004995   0.262972   0.016408   0.016469
    11  C   -0.000004  -0.000815  -0.000361   0.001933   0.332723   0.305422
    12  C    0.000074   0.000115  -0.001060  -0.004815  -0.011562   0.022090
    13  O    0.000004   0.000003   0.000003   0.002521   0.004402   0.002332
    14  C   -0.001021   0.000116  -0.007537  -0.004373  -0.011911  -0.000526
    15  H    0.000061  -0.000040   0.001455   0.000027  -0.000629   0.000047
    16  H   -0.020246  -0.000398   0.001142   0.000023  -0.000024   0.000001
    17  H    0.007803  -0.000072  -0.000519  -0.000056  -0.000021   0.000002
    18  H   -0.026408  -0.008622   0.009456  -0.000051  -0.000022   0.000004
    19  H    0.685263  -0.005013  -0.015389   0.000031   0.000053  -0.000000
    20  H   -0.005013   0.674859  -0.023344  -0.000665  -0.000582   0.000011
    21  H   -0.015389  -0.023344   0.694910  -0.000468   0.003025   0.000180
    22  H    0.000031  -0.000665  -0.000468   0.709711   0.005655  -0.018398
    23  H    0.000053  -0.000582   0.003025   0.005655   0.655086  -0.018782
    24  H   -0.000000   0.000011   0.000180  -0.018398  -0.018782   0.666411
    25  H    0.000000  -0.000000  -0.000028   0.000195   0.005464  -0.016122
    26  H    0.000014   0.000008  -0.000135  -0.012788  -0.000489  -0.000208
              25         26
     1  O    0.008941   0.000015
     2  C   -0.020013   0.000315
     3  C    0.015472   0.008793
     4  C   -0.000107  -0.036711
     5  C    0.000125  -0.006745
     6  C   -0.000005  -0.000404
     7  C    0.000026   0.000002
     8  C   -0.000532  -0.002181
     9  O    0.000002   0.000710
    10  C    0.004847  -0.018028
    11  C   -0.000073   0.013736
    12  C    0.316457   0.002624
    13  O   -0.018012  -0.021721
    14  C    0.003957   0.371652
    15  H   -0.000539  -0.000343
    16  H   -0.000001  -0.000123
    17  H    0.000000   0.008042
    18  H   -0.000000  -0.000083
    19  H    0.000000   0.000014
    20  H   -0.000000   0.000008
    21  H   -0.000028  -0.000135
    22  H    0.000195  -0.012788
    23  H    0.005464  -0.000489
    24  H   -0.016122  -0.000208
    25  H    0.695682  -0.000359
    26  H   -0.000359   0.669494
 Mulliken charges:
               1
     1  O   -0.231783
     2  C    0.111352
     3  C   -0.047734
     4  C   -0.158562
     5  C    0.181370
     6  C   -0.010200
     7  C    0.130053
     8  C   -0.013847
     9  O   -0.216360
    10  C   -0.024642
    11  C    0.123901
    12  C    0.115465
    13  O   -0.348392
    14  C    0.185258
    15  H   -0.013923
    16  H    0.028358
    17  H    0.011667
    18  H    0.020975
    19  H    0.026326
    20  H    0.019509
    21  H    0.010623
    22  H    0.010330
    23  H    0.028265
    24  H    0.032455
    25  H    0.004621
    26  H    0.024917
 Sum of Mulliken charges =  -0.00000
 Mulliken charges with hydrogens summed into heavy atoms:
               1
     1  O   -0.231783
     2  C    0.111352
     3  C   -0.061657
     4  C   -0.158562
     5  C    0.221395
     6  C    0.037101
     7  C    0.160185
     8  C   -0.013847
     9  O   -0.216360
    10  C   -0.014312
    11  C    0.184621
    12  C    0.120086
    13  O   -0.348392
    14  C    0.210175
 APT charges:
               1
     1  O    0.754555
     2  C   -0.887290
     3  C   -0.511490
     4  C   -0.358344
     5  C   -0.462907
     6  C   -0.729793
     7  C   -0.438290
     8  C   -1.102882
     9  O    0.717736
    10  C   -0.466853
    11  C   -0.413595
    12  C   -0.474157
    13  O   -0.129989
    14  C   -0.360700
    15  H    0.422431
    16  H    0.501079
    17  H    0.320870
    18  H    0.482704
    19  H    0.418793
    20  H    0.555633
    21  H    0.037932
    22  H    0.418249
    23  H    0.150416
    24  H    0.544461
    25  H    0.575017
    26  H    0.436414
 Sum of APT charges =  -0.00000
 APT charges with hydrogens summed into heavy atoms:
               1
     1  O    0.754555
     2  C   -0.887290
     3  C   -0.089059
     4  C   -0.358344
     5  C    0.359043
     6  C    0.171703
     7  C    0.155275
     8  C   -1.102882
     9  O    0.717736
    10  C   -0.048603
    11  C    0.281282
    12  C    0.100859
    13  O   -0.129989
    14  C    0.075714
 Electronic spatial extent (au):  <R**2>=           2220.6680
 Charge=             -0.0000 electrons
 Dipole moment (field-independent basis, Debye):
    X=              2.5249    Y=              1.3806    Z=              0.4077  Tot=              2.9064
 Quadrupole moment (field-independent basis, Debye-Ang):
   XX=           -102.1783   YY=            -78.4475   ZZ=            -81.6509
   XY=             13.1239   XZ=             -1.8755   YZ=              3.1716
 Traceless Quadrupole moment (field-independent basis, Debye-Ang):
   XX=            -14.7528   YY=              8.9781   ZZ=              5.7747
   XY=             13.1239   XZ=             -1.8755   YZ=              3.1716
 Octapole moment (field-independent basis, Debye-Ang**2):
  XXX=             10.1045  YYY=              2.7345  ZZZ=              0.3411  XYY=             -8.2649
  XXY=              6.1536  XXZ=             16.9915  XZZ=             18.0236  YZZ=             -2.6596
  YYZ=             -0.9637  XYZ=             -9.8258
 Hexadecapole moment (field-independent basis, Debye-Ang**3):
 XXXX=          -1783.3505 YYYY=           -787.0761 ZZZZ=           -441.4574 XXXY=            115.7815
 XXXZ=            -57.9547 YYYX=             19.0108 YYYZ=             -2.4155 ZZZX=              4.0843
 ZZZY=             -1.9604 XXYY=           -432.2238 XXZZ=           -360.0143 YYZZ=           -215.5602
 XXYZ=             17.6968 YYXZ=              4.1429 ZZXY=             -1.0061
 N-N= 9.478161848790D+02 E-N=-3.412335260073D+03  KE= 6.455398500590D+02
  Exact polarizability:   0.000   0.000   0.000   0.000   0.000   0.000
 Approx polarizability: 209.610 -13.664 156.858  32.846  -9.833 153.279
 No NMR shielding tensors so no spin-rotation constants.
 Leave Link  601 at Thu Jan 29 20:46:05 2026, MaxMem=  4294967296 cpu:               2.5 elap:               0.2
 (Enter /root/g16/l701.exe)
 ... and contract with generalized density number  0.
 Compute integral second derivatives.
 R6Disp: Adding Grimme-D3(BJ) dispersion energy 2nd derivatives to the Hessian.
   1 Symmetry operations used in ECPInt.
 ECPInt:  NShTT=    7260 NPrTT=   26324 LenC2=    7137 LenP2D=   20012.
 LDataN:  DoStor=T MaxTD1= 6 Len=  172
 D2PCM: PCM CHGder 2nd derivatives, FixD1E=F FixD2E=F DoIter=F DoCFld=F I1PDM=0
 GePol: Maximum number of non-zero 2nd derivatives   =     229
 Leave Link  701 at Thu Jan 29 20:46:07 2026, MaxMem=  4294967296 cpu:              41.1 elap:               2.6
 (Enter /root/g16/l702.exe)
 L702 exits ... SP integral derivatives will be done elsewhere.
 Leave Link  702 at Thu Jan 29 20:46:07 2026, MaxMem=  4294967296 cpu:               0.1 elap:               0.0
 (Enter /root/g16/l703.exe)
 Integral derivatives from FoFJK, PRISM(SPDF).
 Compute integral second derivatives, UseDBF=F ICtDFT=           0.
 Calling FoFJK, ICntrl=    100147 FMM=F ISym2X=0 I1Cent= 0 IOpClX= 0 NMat=1 NMatS=1 NMatT=0.
 FoFJK:  IHMeth= 1 ICntrl=  100147 DoSepK=F KAlg= 0 I1Cent=           0 FoldK=F
 IRaf=         0 NMat=       1 IRICut=       1 DoRegI=T DoRafI=F ISym2E= 0 IDoP0=0 IntGTp=1.
 FoFCou: FMM=F IPFlag=           0 FMFlag=      100000 FMFlg1=         800
         NFxFlg=           0 DoJE=F BraDBF=F KetDBF=F FulRan=T
         wScrn=  0.000000 ICntrl=    100147 IOpCl=  0 I1Cent=           0 NGrid=           0
         NMat0=    1 NMatS0=      1 NMatT0=    0 NMatD0=    1 NMtDS0=    0 NMtDT0=    0
 Symmetry not used in FoFCou.
 Leave Link  703 at Thu Jan 29 20:46:43 2026, MaxMem=  4294967296 cpu:             575.4 elap:              35.7
 (Enter /root/g16/l716.exe)
 Dipole        = 9.93355515D-01 5.43173200D-01 1.60383173D-01
 Polarizability= 0.00000000D+00 0.00000000D+00 0.00000000D+00
                 0.00000000D+00 0.00000000D+00 0.00000000D+00
 ***** Axes restored to original set *****
 -------------------------------------------------------------------
 Center     Atomic                   Forces (Hartrees/Bohr)
 Number     Number              X              Y              Z
 -------------------------------------------------------------------
      1        8           0.005742713    0.001396909    0.005076747
      2        6           0.000509494   -0.004387342   -0.006557899
      3        6           0.004693947    0.004569356   -0.000545370
      4        6          -0.001922047    0.005866203   -0.009500810
      5        6           0.001163075   -0.002860375    0.004492238
      6        6           0.004165628   -0.003333731   -0.000730494
      7        6          -0.007551594    0.001573466   -0.001887695
      8        6           0.009167983   -0.001714114    0.003490354
      9        8          -0.009823226   -0.005278291   -0.002621564
     10        6          -0.000758662   -0.001295964   -0.005348717
     11        6           0.001990840    0.003192338   -0.002490734
     12        6           0.004275128   -0.002427223    0.005373690
     13        8           0.001059945    0.000521383   -0.002875405
     14        6          -0.000506706   -0.002482651    0.000261228
     15        1          -0.002036244    0.006915150    0.006575189
     16        1          -0.000259457    0.006506493   -0.000605526
     17        1          -0.002645427    0.000408323   -0.005718135
     18        1          -0.006743158   -0.000283516   -0.000671304
     19        1          -0.001431388    0.004277813    0.004727561
     20        1          -0.002147960   -0.003339580    0.003832031
     21        1           0.003574448    0.000069634    0.003382512
     22        1          -0.002095668   -0.001501516   -0.001922281
     23        1          -0.000605244   -0.000900522    0.006455891
     24        1           0.001466528   -0.005993148    0.000024508
     25        1           0.004669961   -0.000729775    0.000936117
     26        1          -0.003952912    0.001230681   -0.003152133
 -------------------------------------------------------------------
 Cartesian Forces:  Max     0.009823226 RMS     0.003971311
 FormGI is forming the generalized inverse of G from B-inverse, IUseBI=4.
 Leave Link  716 at Thu Jan 29 20:46:43 2026, MaxMem=  4294967296 cpu:               0.3 elap:               0.0
 (Enter /root/g16/l103.exe)

 GradGradGradGradGradGradGradGradGradGradGradGradGradGradGradGradGradGrad
 Berny optimization.
 Red2BG is reusing G-inverse.
 Internal  Forces:  Max     0.011513844 RMS     0.002964038
 Search for a local minimum.
 Step number   1 out of a maximum of  156
[...]
 865132,-0.21164957,0.10517103,0.08159094,-0.00535344,0.00389160,0.0033
 9447,0.00078695,-0.00078293,-0.00167445,-0.00010018,0.00076673,0.00017
 336,-0.00002480,-0.00028997,-0.00006966,-0.00000197,0.00002450,0.00007
 133,0.00002315,-0.00008852,0.00002601,-0.00002250,0.00017699,0.0002681
 8,0.00022927,-0.00013745,-0.00044038,-0.00006967,-0.00012455,0.0001081
 8,0.00097519,0.00054604,-0.00037871,0.00038986,-0.00001443,0.00010371,
 0.00832954,-0.00479838,-0.00363599,0.22738059,-0.00056840,0.00009971,0
 .00001967,0.00081977,-0.00040603,-0.00072884,-0.00119126,0.00122659,-0
 .00020598,-0.00207848,-0.00370141,0.00129192,-0.02109543,0.00949008,0.
 00903282,0.10570745,-0.10811911,-0.05226461,0.01712518,-0.01436037,-0.
 00724005,0.00027244,0.00105012,0.00522156,-0.00027032,-0.00230575,-0.0
 0102450,-0.00021166,0.00016567,-0.00038467,-0.00027042,0.00005937,-0.0
 0003704,0.00001100,-0.00011578,0.00003836,0.00022331,0.00031427,0.0001
 3896,-0.00009509,-0.00038455,-0.00030137,-0.00004963,-0.00014334,0.000
 12140,0.00012179,0.00123142,0.00004731,0.00076606,0.00043501,-0.000079
 68,0.00983262,-0.00624092,-0.00483504,-0.10917365,0.12071599,0.0002326
 7,-0.00003678,0.00006936,-0.00029151,0.00017779,0.00008400,0.00039708,
 -0.00024507,-0.00018062,-0.00002230,0.00084737,0.00037738,0.00259561,-
 0.00331884,-0.00160638,0.08377632,-0.05256016,-0.08660769,-0.01792676,
 0.01451979,0.00777695,-0.00115868,-0.00011561,-0.00409235,0.00046488,0
 .00199422,0.00071166,0.00008154,0.00023309,0.00030344,0.00007202,-0.00
 008871,0.00001411,0.00001661,0.00009228,-0.00011730,0.00016960,-0.0002
 0020,0.00019433,-0.00041560,0.00042341,-0.00014819,0.00000168,0.000011
 58,0.00000820,-0.00048378,0.00038476,0.00102305,-0.00006417,-0.0001569
 6,-0.00015357,0.02128648,-0.01268213,-0.01031057,-0.08865560,0.0514614
 1,0.09072575,-0.00016942,-0.00001067,-0.00011993,0.00026031,-0.0000173
 8,0.00013915,0.00007519,-0.00010667,0.00027488,-0.00034919,0.00019346,
 -0.00011222,0.00005318,0.00141824,-0.00146825,0.00969659,0.00550353,-0
 .00577149,-0.22038357,-0.07659608,0.10683513,-0.01408634,-0.00694500,0
 .00824635,0.00279952,-0.00076906,-0.00241852,0.00104585,0.00233372,0.0
 0097046,0.00032972,0.00002750,0.00002501,0.00006872,-0.00003122,-0.000
 03325,-0.00017981,-0.00014942,0.00005706,0.00027537,0.00022230,-0.0003
 8997,-0.00000067,0.00000725,-0.00002547,-0.00000651,0.00006232,0.00000
 530,0.00028467,0.00039953,-0.00018165,-0.00005302,-0.00038789,0.000040
 80,0.00135609,-0.00002350,-0.00005108,0.23364810,-0.00019225,0.0000784
 5,-0.00002589,0.00030648,-0.00029913,-0.00012002,-0.00027967,0.0002875
 6,0.00007026,0.00101200,-0.00050647,-0.00007299,0.00143141,-0.00176086
 ,0.00388827,-0.01623183,-0.00916624,0.00845227,-0.08025668,-0.07950217
 ,0.05089749,0.02455010,0.00635316,-0.01474156,-0.00100039,0.00197526,0
 .00016172,0.00032417,-0.00395036,-0.00158596,-0.00008379,0.00003881,-0
 .00013048,0.00001710,-0.00005102,0.00004821,0.00000402,0.00018982,0.00
 004177,-0.00026709,-0.00022970,0.00017306,0.00000923,0.00000560,0.0000
 2175,0.00003684,0.00014140,-0.00013504,-0.00096131,-0.00096478,0.00037
 238,0.00010142,0.00013238,0.00033762,-0.00054576,0.00051634,-0.0001687
 8,0.07997766,0.09031204,0.00010509,0.00002465,0.00004338,-0.00008665,-
 0.00002928,-0.00002321,0.00024485,-0.00012098,0.00033673,-0.00095871,-
 0.00019557,-0.00007656,-0.00169114,0.00101982,-0.00195647,0.01457362,0
 .00655514,-0.00776415,0.10568039,0.04855346,-0.11111859,0.01647374,0.0
 0351840,-0.01105489,-0.00348875,0.00259830,0.00104440,0.00065467,-0.00
 235836,0.00032807,0.00024897,-0.00000924,-0.00033312,0.00001670,-0.000
 04715,-0.00000805,0.00018997,0.00002958,-0.00004229,-0.00036372,-0.000
 10694,0.00028074,0.00001352,0.00002950,0.00000928,0.00007497,0.0001792
 2,0.00003195,0.00059779,0.00063451,-0.00004432,-0.00007848,-0.00018970
 ,-0.00030404,-0.00000651,-0.00043054,0.00123107,-0.11567971,-0.0529251
 8,0.11824173,0.00027261,-0.00001320,0.00007828,-0.00040801,0.00011665,
 0.00008458,-0.00000151,-0.00037298,0.00024931,-0.00016302,-0.00050800,
 0.00085669,0.00013386,-0.00078078,0.00140619,-0.00394962,-0.00343629,-
 0.00626640,-0.14667115,-0.06080248,-0.10657604,0.01328733,0.00307227,0
 .01075129,-0.00147884,0.00212685,-0.00197510,-0.00205929,-0.00083555,-
 0.00199218,-0.00018188,0.00006892,0.00057020,-0.00021707,0.00017914,-0
 .00004413,0.00011423,-0.00005566,-0.00004872,-0.00006020,0.00014722,0.
 00019320,0.00001451,0.00001660,-0.00000835,0.00029857,0.00028704,-0.00
 011747,-0.00012247,0.00005008,-0.00000205,-0.00016516,0.00129173,-0.00
 037144,-0.00016663,-0.00000322,0.00007154,-0.01404769,-0.00882454,-0.0
 1708207,0.15578869,0.00007119,-0.00000507,0.00003133,-0.00005330,0.000
 01957,-0.00002264,-0.00006492,-0.00004053,0.00031401,-0.00073951,-0.00
 019872,0.00046021,-0.00005074,0.00173109,0.00054504,0.01448415,0.00885
 266,0.01908857,-0.06609389,-0.08142747,-0.07516713,-0.02011123,-0.0103
 8001,-0.01521874,0.00515740,-0.00314133,0.00145494,0.00194357,0.000383
 52,0.00151584,0.00018702,-0.00000949,-0.00053770,0.00011610,-0.0000267
 0,0.00000105,0.00009244,-0.00004309,-0.00005478,0.00005408,-0.00005278
 ,0.00014402,-0.00001354,0.00000053,-0.00000511,0.00017497,-0.00030414,
 -0.00042850,0.00024488,0.00021949,-0.00021987,0.00148769,-0.00325426,0
 .00289188,-0.00007830,0.00037760,-0.00047528,-0.00500960,-0.00374373,-
 0.00660461,0.06827315,0.09101189,-0.00037004,0.00007568,-0.00014975,0.
 00067217,-0.00037991,0.00002269,-0.00002467,0.00013753,0.00035007,0.00
 015867,-0.00003993,-0.00040912,-0.00043383,-0.00094638,0.00116349,-0.0
 1212422,-0.00558343,-0.01677513,-0.10892225,-0.06990168,-0.16051205,-0
 .00995709,-0.00492731,-0.00932955,0.00118916,-0.00045826,0.00026910,0.
 00153774,0.00011414,0.00115991,0.00015082,0.00005265,-0.00037337,0.000
 09617,-0.00006997,0.00001300,-0.00000777,0.00010435,0.00009684,-0.0001
 3847,-0.00016659,-0.00027198,0.00001651,0.00004744,-0.00000623,0.00030
 202,0.00046017,-0.00015057,-0.00018428,-0.00024596,0.00031824,-0.00156
 078,0.00342914,-0.00166845,0.00004955,0.00013205,0.00023591,0.00917528
 ,0.00614277,0.01136849,0.12050723,0.07206506,0.17413107,-0.00019586,-0
 .00014455,-0.00016804,0.00006055,0.00058887,0.00015860,0.00016618,0.00
 023591,-0.00002109,0.00043473,-0.00002160,0.00018404,-0.00000915,-0.00
 019571,-0.00007195,0.00003862,-0.00005037,0.00006156,-0.00350119,-0.00
 180598,0.00113398,0.00055515,0.01719763,0.02124171,0.00085842,0.000977
 69,-0.00255902,-0.04727843,-0.03440790,-0.02888704,-0.00860498,-0.0157
 3311,-0.02110833,-0.00081389,0.00040549,-0.00147147,0.00110444,-0.0002
 9719,0.00088585,-0.00063380,-0.00103668,-0.00153022,0.00000548,-0.0000
 6994,0.00010182,0.00002733,-0.00000509,-0.00000620,0.00003987,0.000022
 65,-0.00001636,-0.00002684,0.00008411,-0.00006967,0.00001794,0.0000837
 4,-0.00006279,-0.00064449,0.00082338,0.00038812,0.00040819,-0.00026736
 ,-0.00024954,0.06038701,-0.00092693,0.00025217,-0.00029292,0.00147209,
 -0.00124012,0.00020124,-0.00085226,-0.00013664,-0.00047391,-0.00146806
 ,-0.00212345,0.00455477,-0.00023947,0.00007500,-0.00034883,-0.00019627
 ,-0.00001014,-0.00005529,0.00011058,0.00042208,0.00016483,0.00216411,0
 .00019649,-0.00028503,-0.00169170,0.00009084,0.00229549,-0.03680064,-0
 .17604660,-0.13420378,0.00471298,0.00469501,0.00678300,-0.00003307,-0.
 00018739,0.00013753,0.00116946,0.00270439,-0.00000842,-0.00366605,-0.0
 2450356,-0.01723072,-0.00000051,0.00028366,-0.00053024,0.00016272,-0.0
 0004614,-0.00011374,-0.00000846,0.00003215,0.00002639,0.00003270,0.000
 03622,0.00004447,0.00006614,0.00006411,-0.00002022,-0.00000384,0.00005
 268,-0.00016293,-0.00014474,0.00000209,0.00003266,0.03417243,0.1924876
 5,0.00050276,-0.00017699,0.00017895,-0.00075462,0.00088096,-0.00009198
 ,0.00073490,0.00016446,0.00082114,0.00139333,0.00145569,-0.00224357,0.
 00014556,-0.00009805,0.00018919,0.00001837,0.00011447,-0.00023399,0.00
 256380,0.00193174,-0.00098658,-0.00263889,-0.01749816,-0.01623184,-0.0
 0000841,0.00120746,0.00315003,-0.03006620,-0.13414811,-0.17831172,-0.0
 0438262,-0.00625111,-0.00891546,-0.00006575,0.00027536,-0.00069086,-0.
 00140470,-0.00040853,0.00066127,0.00331819,0.01563092,0.00957211,0.000
 01198,-0.00018290,0.00034689,-0.00007254,0.00000302,0.00006712,-0.0000
 0229,-0.00005305,0.00000374,0.00001510,-0.00006500,0.00006229,-0.00002
 620,-0.00013017,0.00010450,0.00051687,-0.00073303,-0.00028466,-0.00031
 087,0.00026388,0.00016834,0.03264805,0.13815792,0.19028564,-0.00041719
 ,0.00034149,-0.00040158,0.00192688,-0.00037054,0.00100237,-0.00047407,
 0.00012236,-0.00001190,0.00032702,0.00030418,0.00006086,0.00003342,-0.
 00001603,-0.00002274,0.00003661,0.00007299,-0.00012956,-0.00050324,-0.
 00013003,-0.00028049,0.00114843,0.00002641,-0.00228513,0.00007909,-0.0
 0045563,0.00057224,-0.00170884,-0.00585917,-0.02645107,-0.04586709,0.0
 0036875,-0.00146775,0.00095923,0.00441374,0.01699888,-0.00089531,-0.00
 265403,0.00245946,-0.00185184,-0.00004242,-0.00075652,0.00005425,-0.00
 007690,0.00003860,0.00000390,-0.00000539,0.00000356,-0.00000371,-0.000
 02331,-0.00000424,0.00002858,-0.00000675,0.00005239,0.00002277,-0.0000
 2779,0.00004064,0.00008146,0.00001276,0.00007972,-0.00048114,0.0001391
 8,0.00012969,-0.00388520,0.00148177,-0.00224748,0.05176965,0.00021865,
 0.00007248,0.00010528,-0.00056663,-0.00066502,0.00146709,-0.00006687,-
 0.00045205,0.00012719,0.00026948,0.00004868,-0.00001835,-0.00009489,-0
 .00006542,-0.00012745,0.00000873,0.00003241,0.00005034,-0.00020244,-0.
 00015022,0.00014763,-0.00017504,0.00128346,-0.00020396,0.00020054,-0.0
 0028046,0.00013860,-0.00177476,-0.00026044,0.00423787,0.00035901,-0.05
 367440,-0.04409092,0.00213217,0.00412607,0.01826117,0.00009677,-0.0045
 7936,0.00471677,-0.00112505,0.00010039,0.00116509,-0.00000147,0.000092
 29,-0.00003329,0.00001393,-0.00000966,0.00000403,-0.00004286,0.0000295
 1,0.00001725,-0.00001175,-0.00000666,-0.00001523,-0.00002530,-0.000003
 75,-0.00000917,-0.00009832,0.00005033,0.00000178,0.00031083,-0.0000480
 2,-0.00017620,-0.00038407,0.00039676,0.00005717,0.00190967,0.05710454,
 0.00077334,0.00009814,0.00092321,-0.00135859,-0.00091727,-0.00148097,0
 .00060182,0.00010045,0.00056549,-0.00053492,-0.00044838,-0.00029168,0.
 00007867,0.00003825,0.00009097,-0.00000678,-0.00002204,0.00000352,-0.0
 0048355,-0.00025353,0.00001163,0.00128186,0.00147821,-0.00075124,-0.00
 018211,-0.00082827,0.00061196,-0.00079015,-0.00203989,-0.00525994,-0.0
 0212723,-0.04158057,-0.31138069,-0.00076944,-0.00212629,-0.00791172,-0
 .00015683,0.00256811,-0.00166608,0.00104768,-0.00031683,-0.00072218,-0
 .00001627,0.00007588,0.00000202,-0.00001872,0.00002493,0.00000374,0.00
 005011,-0.00002244,-0.00000009,0.00004271,-0.00001345,0.00002837,0.000
 01910,0.00002288,0.00000365,-0.00006716,0.00006968,0.00004547,0.000116
 02,-0.00006901,0.00011449,-0.00093765,0.00073556,-0.00002699,0.0031729
 0,0.04269492,0.33222262,-0.00061477,-0.00046084,-0.00140324,-0.0014893
 9,0.00008952,0.00405849,0.00103846,-0.00008828,-0.00033550,-0.00048518
 ,-0.00094710,-0.00080023,0.00000978,-0.00015206,0.00019607,-0.00002236
 ,-0.00018789,0.00004766,0.00026117,0.00017754,0.00072692,0.00088263,0.
 00230728,-0.00256578,-0.00010267,-0.00147623,0.00020350,-0.01208434,0.
 02499480,0.00255169,-0.06420852,0.07793495,0.01761303,0.00235863,-0.02
 262303,-0.00496016,0.00174224,0.00017604,0.00094063,-0.00497212,0.0002
 4103,-0.00034168,0.00017894,-0.00002896,-0.00008760,-0.00001324,0.0000
 1705,0.00001595,0.00008928,-0.00002500,-0.00000387,0.00007436,-0.00001
 704,0.00000770,0.00000447,0.00004274,0.00001376,-0.00003617,0.00002086
 ,0.00007429,-0.00014035,0.00006642,0.00004594,0.00150746,0.00006339,0.
 00043832,0.00039464,-0.00037310,-0.00000805,0.07435142,-0.00048914,-0.
 00065949,-0.00115890,-0.00160392,0.00104648,0.00342590,0.00056150,0.00
 006718,-0.00013376,-0.00024964,0.00015217,-0.00012352,0.00004026,-0.00
 007757,0.00017130,-0.00005856,-0.00007026,-0.00002142,0.00009446,0.000
 09857,0.00010148,0.00004372,-0.00003787,0.00048453,-0.00004075,0.00004
 943,-0.00022202,-0.00114751,0.00011678,-0.00095957,0.07868253,-0.29382
 954,-0.05125439,0.00328746,-0.01671558,-0.00541044,0.00130070,0.000160
 15,0.00115381,-0.00067914,0.00000073,0.00051645,0.00008123,-0.00003369
 ,-0.00008997,0.00001674,-0.00001310,-0.00001774,0.00007012,-0.00001839
 ,-0.00002970,-0.00000821,0.00000823,0.00000404,0.00002234,0.00001543,-
 0.00000458,0.00001855,-0.00000627,-0.00001466,-0.00006108,0.00002661,0
 .00002879,-0.00035284,0.00134821,-0.00002861,0.00083272,-0.00245700,-0
 .00028167,-0.08059026,0.30958594,0.00060579,0.00017760,0.00097015,0.00
 046961,0.00054175,-0.00227977,0.00017702,-0.00032697,0.00066400,-0.000
 35688,-0.00048474,-0.00056946,-0.00000968,0.00006022,-0.00004459,0.000
 04037,-0.00003249,-0.00000057,-0.00011719,-0.00007456,0.00009389,-0.00
 050293,0.00045703,-0.00061596,-0.00007651,-0.00000772,0.00004137,-0.00
 580347,0.01129450,0.00080207,0.01794747,-0.05416313,-0.05674765,-0.003
 91434,0.01574668,0.00398282,-0.00006950,-0.00055609,-0.00086450,-0.001
 67263,0.00139248,-0.00108279,-0.00002460,0.00005466,0.00000066,-0.0000
 0703,0.00000418,0.00000986,-0.00000277,-0.00000580,0.00002343,0.000032
 21,-0.00001037,0.00001774,0.00000467,0.00000429,0.00001944,-0.00000655
 ,0.00001552,0.00004909,-0.00007396,0.00008941,0.00008690,-0.00029494,0
 .00100127,0.00113622,0.00931769,-0.02902419,-0.00469389,-0.01534758,0.
 05384746,0.05877716,0.00159698,0.00025976,0.00097695,0.00387078,-0.003
 24181,-0.00263092,0.00014205,-0.00099224,-0.00065663,-0.00025286,-0.00
 027436,-0.00010704,0.00001185,0.00000559,0.00022778,0.00000457,0.00001
 656,0.00001735,-0.00000515,0.00001680,0.00007129,0.00023582,-0.0000151
 8,-0.00068663,-0.00027491,-0.00023700,0.00030955,-0.00086167,0.0000008
 8,0.00062267,-0.00821796,0.00441903,0.00459854,-0.25696174,0.09193438,
 0.07571727,-0.01710518,0.00583722,-0.00092349,0.00101470,0.00124798,-0
 .00284441,0.00026221,-0.00018594,0.00007884,-0.00006222,0.00005715,0.0
 0004705,0.00002286,-0.00001743,-0.00000818,0.00003970,-0.00000567,0.00
 000615,-0.00001943,0.00000900,0.00001065,-0.00002318,0.00000839,0.0000
 2207,0.00000837,0.00001125,-0.00000557,-0.00008453,-0.00001293,-0.0000
 4929,-0.00105933,-0.00065684,0.00033243,0.00088793,0.00023466,-0.00045
 205,0.27755476,-0.00178861,0.00274649,0.00334040,0.02502399,-0.0104689
 9,-0.00941911,-0.00163595,-0.00339215,-0.00264581,-0.00054434,0.000327
 68,-0.00034314,0.00004363,0.00012370,0.00001405,0.00002161,-0.00013497
 ,0.00008160,0.00005333,0.00009195,0.00022469,0.00014646,0.00019197,-0.
 00120589,-0.00021910,-0.00033112,0.00031775,-0.00329917,-0.00099455,0.
 00151878,-0.01801516,0.00765405,0.00622313,0.09082797,-0.08565831,-0.0
 3451749,0.00925307,-0.00232063,0.00083731,-0.00152763,-0.00082075,0.00
 189294,0.00083757,-0.00090617,0.00025337,-0.00002158,-0.00001140,-0.00
 001380,0.00004702,-0.00001118,0.00001270,0.00001874,-0.00000037,-0.000
 02070,0.00002807,0.00004571,-0.00002085,-0.00000625,0.00003010,0.00001
 825,-0.00006500,0.00002562,0.00004133,-0.00014000,0.00004470,-0.000093
 17,-0.00082698,-0.00046809,0.00078037,0.00015535,0.00144676,-0.0003689
 7,-0.09866743,0.09268770,-0.00115880,0.00202610,0.00131581,0.01770904,
 -0.00602323,-0.00282098,-0.00103120,-0.00297197,-0.00146308,-0.0010137
 0,-0.00019040,-0.00039396,0.00016009,0.00022029,0.00020261,-0.00001994
 ,-0.00000267,-0.00007247,-0.00003113,-0.00003817,-0.00016674,0.0000458
 0,-0.00022812,0.00066749,0.00004602,0.00012487,-0.00013818,0.00112312,
 0.00091301,-0.00152298,0.01047976,-0.00465783,-0.00135328,0.08449547,-
 0.03764294,-0.07840913,-0.03301226,0.01264012,0.00714246,-0.00196961,0
 .00250469,-0.00493565,0.00071330,-0.00058459,0.00017391,-0.00007990,0.
 00006229,0.00002842,0.00005187,-0.00004918,-0.00001176,0.00004200,0.00
 002440,0.00003395,0.00003212,0.00002137,0.00002671,0.00001103,-0.00000
 817,-0.00001480,0.00001985,-0.00000934,0.00000792,0.00011006,0.0000502
 3,0.00004974,0.00030192,0.00047584,-0.00038291,-0.00064996,-0.00010397
 ,0.00052975,-0.07499207,0.03332027,0.08090276,-0.00022341,-0.00070285,
 -0.00037616,-0.00018387,0.00146990,0.00055352,0.00136113,0.00086706,0.
 00023932,0.00184128,-0.00196044,-0.00124269,0.00002762,-0.00006699,0.0
 0087307,-0.00021709,0.00005660,0.00032840,0.00003573,-0.00001261,0.000
 05256,-0.00010401,0.00020184,-0.00000439,0.00008671,0.00003701,-0.0001
 7574,0.00711641,-0.00138506,0.00608194,-0.00071954,-0.00190655,0.00113
 440,-0.00402031,-0.00085028,0.00381435,-0.02859135,0.00839328,-0.02228
 470,-0.14476109,0.02125538,-0.12424839,0.00021814,0.00006374,-0.000120
 68,-0.00005134,-0.00015421,-0.00000039,0.00026671,-0.00017508,-0.00001
 164,-0.00075692,0.00021983,0.00073171,0.00001896,0.00004377,-0.0000988
 1,0.00000529,0.00000749,-0.00000274,-0.00001234,-0.00002111,-0.0000524
 6,0.00006699,0.00043656,-0.00027740,0.00028102,0.00007959,-0.00005920,
 0.00038769,-0.00000595,0.00013778,-0.00072442,0.00030039,-0.00138289,0
 .16865200,-0.00032579,0.00031357,0.00017219,0.00138768,-0.00029006,-0.
 00049232,0.00119447,-0.00331577,-0.00180075,-0.01631048,0.00264890,-0.
 02250282,-0.00049622,0.00100603,0.00041053,0.00030725,0.00006504,0.000
 05621,-0.00007983,0.00000298,0.00023221,0.00118631,-0.00025624,-0.0001
 1530,-0.00057237,-0.00042025,0.00005544,0.01415622,-0.00294338,0.01867
 517,0.00047939,-0.00290179,0.00218836,0.00059289,-0.00045200,0.0006491
 3,0.00284115,-0.00036437,0.00298940,0.02156700,-0.05063962,0.02406867,
 -0.00131724,-0.00091128,0.00042787,-0.00019084,0.00001597,0.00033047,0
 .00011573,-0.00044245,0.00003175,-0.00000366,-0.00003092,-0.00033769,-
 0.00001471,-0.00002641,-0.00004235,-0.00000915,0.00001679,0.00003254,-
 0.00003695,0.00002469,0.00003184,0.00032050,0.00110982,-0.00027620,0.0
 0046895,-0.00021639,0.00023226,0.00068284,-0.00020391,0.00036797,0.000
 24816,0.00010226,0.00012708,-0.02619132,0.05810879,-0.00066200,0.00030
 481,-0.00021318,0.00158414,-0.00063105,-0.00008025,0.00086678,-0.00203
 302,-0.00146754,-0.01185940,0.00187104,-0.01361148,-0.00070219,0.00019
 975,0.00031318,-0.00033811,0.00014662,-0.00024967,0.00000593,0.0000635
 8,-0.00020926,-0.00073432,0.00036909,0.00044464,0.00038276,0.00015950,
 -0.00018123,-0.00781906,0.00053894,-0.00851721,0.00087496,0.00182332,-
 0.00026046,0.00339109,-0.00053547,-0.00013960,0.01188005,-0.00241003,0
 .01440948,-0.13391528,0.02727609,-0.21944145,-0.00089368,-0.00058745,0
 .00029080,0.00000063,-0.00001687,0.00023181,0.00035685,-0.00054113,0.0
 0001622,0.00087182,0.00003918,-0.00002301,0.00007003,0.00010846,0.0003
 0715,0.00002793,-0.00004568,0.00001472,-0.00003560,-0.00005251,0.00013
 974,0.00054052,-0.00045933,0.00122048,-0.00017248,0.00003073,-0.000058
 76,-0.00043028,0.00012115,-0.00030538,0.00031767,-0.00022803,0.0006043
 9,0.13639121,-0.02551168,0.22676586\\0.00000365,-0.00000457,-0.0000094
 2,0.00000070,-0.00000272,-0.00000648,0.00000385,-0.00000144,-0.0000056
 2,0.00000251,0.00000204,-0.00000456,0.00000449,-0.00000202,0.00000492,
 -0.00000107,0.00000420,0.00000540,0.00000158,-0.00000098,0.00001053,0.
 00000294,0.00000248,0.00000051,-0.00000333,0.00000308,0.00000478,0.000
 00118,0.00000065,0.00000508,-0.00000164,-0.00000220,-0.00000605,-0.000
 00192,-0.00000298,-0.00000565,-0.00000553,-0.00000145,-0.00000438,-0.0
 0000366,-0.00000065,-0.00000193,0.00000581,-0.00000190,-0.00000348,0.0
 0000438,0.00000094,0.00000305,0.00000030,0.00000197,0.00000439,-0.0000
 0262,0.00000403,0.00000805,0.00000323,0.00000384,0.00000887,0.00000237
 ,0.00000398,0.00000628,0.00000341,0.00000097,0.00000243,-0.00000760,0.
 00000035,0.00000080,-0.00000114,-0.00000185,-0.00000419,-0.00000274,-0
 .00000211,-0.00000522,-0.00000389,-0.00000397,-0.00000883,-0.00000527,
 0.00000032,0.00000073\\\@


 I WANT IT ALL - RICH, THIN, AND CHOCOLATE.
 Job cpu time:       0 days  0 hours 28 minutes 34.4 seconds.
 Elapsed time:       0 days  0 hours  1 minutes 47.6 seconds.
 File lengths (MBytes):  RWF=    260 Int=      0 D2E=      0 Chk=     19 Scr=      1
 Normal termination of Gaussian 16 at Thu Jan 29 20:54:06 2026.
