
                                 *****************
                                 * O   R   C   A *
                                 *****************

                                            #,                                       
                                            ###                                      
                                            ####                                     
                                            #####                                    
                                            ######                                   
                                           ########,                                 
                                     ,,################,,,,,                         
                               ,,#################################,,                 
                          ,,##########################################,,             
                       ,#########################################, ''#####,          
                    ,#############################################,,   '####,        
                  ,##################################################,,,,####,       
                ,###########''''           ''''###############################       
              ,#####''   ,,,,##########,,,,          '''####'''          '####       
            ,##' ,,,,###########################,,,                        '##       
           ' ,,###''''                  '''############,,,                           
         ,,##''                                '''############,,,,        ,,,,,,###''
      ,#''                                            '''#######################'''  
     '                                                          ''''####''''         
             ,#######,   #######,   ,#######,      ##                                
            ,#'     '#,  ##    ##  ,#'     '#,    #''#        ######   ,####,        
            ##       ##  ##   ,#'  ##            #'  '#       #        #'  '#        
            ##       ##  #######   ##           ,######,      #####,   #    #        
            '#,     ,#'  ##    ##  '#,     ,#' ,#      #,         ##   #,  ,#        
             '#######'   ##     ##  '#######'  #'      '#     #####' # '####'        



                  #######################################################
                  #                        -***-                        #
                  #          Department of theory and spectroscopy      #
                  #    Directorship and core code : Frank Neese         #
                  #        Max Planck Institute fuer Kohlenforschung    #
                  #                Kaiser Wilhelm Platz 1               #
                  #                 D-45470 Muelheim/Ruhr               #
                  #                      Germany                        #
                  #                                                     #
                  #                  All rights reserved                #
                  #                        -***-                        #
                  #######################################################


                         Program Version 5.0.4 -  RELEASE  -


 With contributions from (in alphabetic order):
   Daniel Aravena         : Magnetic Suceptibility
   Michael Atanasov       : Ab Initio Ligand Field Theory (pilot matlab implementation)
   Alexander A. Auer      : GIAO ZORA, VPT2 properties, NMR spectrum
   Ute Becker             : Parallelization
   Giovanni Bistoni       : ED, misc. LED, open-shell LED, HFLD
   Martin Brehm           : Molecular dynamics
   Dmytro Bykov           : SCF Hessian
   Vijay G. Chilkuri      : MRCI spin determinant printing, contributions to CSF-ICE
   Dipayan Datta          : RHF DLPNO-CCSD density
   Achintya Kumar Dutta   : EOM-CC, STEOM-CC
   Dmitry Ganyushin       : Spin-Orbit,Spin-Spin,Magnetic field MRCI
   Miquel Garcia          : C-PCM and meta-GGA Hessian, CC/C-PCM, Gaussian charge scheme
   Yang Guo               : DLPNO-NEVPT2, F12-NEVPT2, CIM, IAO-localization
   Andreas Hansen         : Spin unrestricted coupled pair/coupled cluster methods
   Benjamin Helmich-Paris : MC-RPA, TRAH-SCF, COSX integrals
   Lee Huntington         : MR-EOM, pCC
   Robert Izsak           : Overlap fitted RIJCOSX, COSX-SCS-MP3, EOM
   Marcus Kettner         : VPT2
   Christian Kollmar      : KDIIS, OOCD, Brueckner-CCSD(T), CCSD density, CASPT2, CASPT2-K
   Simone Kossmann        : Meta GGA functionals, TD-DFT gradient, OOMP2, MP2 Hessian
   Martin Krupicka        : Initial AUTO-CI
   Lucas Lang             : DCDCAS
   Marvin Lechner         : AUTO-CI (C++ implementation), FIC-MRCC
   Dagmar Lenk            : GEPOL surface, SMD
   Dimitrios Liakos       : Extrapolation schemes; Compound Job, initial MDCI parallelization
   Dimitrios Manganas     : Further ROCIS development; embedding schemes
   Dimitrios Pantazis     : SARC Basis sets
   Anastasios Papadopoulos: AUTO-CI, single reference methods and gradients
   Taras Petrenko         : DFT Hessian,TD-DFT gradient, ASA, ECA, R-Raman, ABS, FL, XAS/XES, NRVS
   Peter Pinski           : DLPNO-MP2, DLPNO-MP2 Gradient
   Christoph Reimann      : Effective Core Potentials
   Marius Retegan         : Local ZFS, SOC
   Christoph Riplinger    : Optimizer, TS searches, QM/MM, DLPNO-CCSD(T), (RO)-DLPNO pert. Triples
   Tobias Risthaus        : Range-separated hybrids, TD-DFT gradient, RPA, STAB
   Michael Roemelt        : Original ROCIS implementation
   Masaaki Saitow         : Open-shell DLPNO-CCSD energy and density
   Barbara Sandhoefer     : DKH picture change effects
   Avijit Sen             : IP-ROCIS
   Kantharuban Sivalingam : CASSCF convergence, NEVPT2, FIC-MRCI
   Bernardo de Souza      : ESD, SOC TD-DFT
   Georgi Stoychev        : AutoAux, RI-MP2 NMR, DLPNO-MP2 response
   Willem Van den Heuvel  : Paramagnetic NMR
   Boris Wezisla          : Elementary symmetry handling
   Frank Wennmohs         : Technical directorship


 We gratefully acknowledge several colleagues who have allowed us to
 interface, adapt or use parts of their codes:
   Stefan Grimme, W. Hujo, H. Kruse, P. Pracht,  : VdW corrections, initial TS optimization,
                  C. Bannwarth, S. Ehlert          DFT functionals, gCP, sTDA/sTD-DF
   Ed Valeev, F. Pavosevic, A. Kumar             : LibInt (2-el integral package), F12 methods
   Garnet Chan, S. Sharma, J. Yang, R. Olivares  : DMRG
   Ulf Ekstrom                                   : XCFun DFT Library
   Mihaly Kallay                                 : mrcc  (arbitrary order and MRCC methods)
   Jiri Pittner, Ondrej Demel                    : Mk-CCSD
   Frank Weinhold                                : gennbo (NPA and NBO analysis)
   Christopher J. Cramer and Donald G. Truhlar   : smd solvation model
   Lars Goerigk                                  : TD-DFT with DH, B97 family of functionals
   V. Asgeirsson, H. Jonsson                     : NEB implementation
   FAccTs GmbH                                   : IRC, NEB, NEB-TS, DLPNO-Multilevel, CI-OPT
                                                   MM, QMMM, 2- and 3-layer-ONIOM, Crystal-QMMM,
                                                   LR-CPCM, SF, NACMEs, symmetry and pop. for TD-DFT,
                                                   nearIR, NL-DFT gradient (VV10), updates on ESD,
                                                   ML-optimized integration grids
   S Lehtola, MJT Oliveira, MAL Marques          : LibXC Library
   Liviu Ungur et al                             : ANISO software


 Your calculation uses the libint2 library for the computation of 2-el integrals
 For citations please refer to: http://libint.valeyev.net

 Your ORCA version has been built with support for libXC version: 5.1.0
 For citations please refer to: https://tddft.org/programs/libxc/

 This ORCA versions uses:
   CBLAS   interface :  Fast vector & matrix operations
   LAPACKE interface :  Fast linear algebra routines
   SCALAPACK package :  Parallel linear algebra routines
   Shared memory     :  Shared parallel matrices
   BLAS/LAPACK       :  OpenBLAS 0.3.15  USE64BITINT DYNAMIC_ARCH NO_AFFINITY Zen SINGLE_THREADED
        Core in use  :  Zen
   Copyright (c) 2011-2014, The OpenBLAS Project


Your calculation utilizes the atom-pairwise dispersion correction
with the Becke-Johnson damping scheme (D3BJ)
Cite in your paper:
S.Grimme, S.Ehrlich, L.Goerigk, J Comput Chem, (2011), 32, 1456–1465 
S.Grimme, J.Antony, S.Ehrlich and H.Krieg, J.Chem.Phys., 132, (2010), 154104 
   

Your calculation utilizes the SMD solvation module
Please cite in your paper:
A.V. Marenich, C.J. Cramer, D.G. Truhlar J. Phys. Chem. B, 113, (2009), 6378 

================================================================================

----- Orbital basis set information -----
Your calculation utilizes the basis: def2-TZVPP
   F. Weigend and R. Ahlrichs, Phys. Chem. Chem. Phys. 7, 3297 (2005).

----- AuxJ basis set information -----
Your calculation utilizes the auxiliary basis: def2/J
   F. Weigend, Phys. Chem. Chem. Phys. 8, 1057 (2006).

================================================================================
                                        WARNINGS
                       Please study these warnings very carefully!
================================================================================


INFO   : the flag for use of the SHARK integral package has been found!

================================================================================
                                       INPUT FILE
================================================================================
NAME = reactant_complex_70dc5dce.inp
|  1> ! wB97X-D3BJ def2-TZVPP def2/J RIJCOSX tightSCF noautostart miniprint nopop
|  2>  %maxcore 1000
|  3>  %pal nprocs 16 end
|  4>  
|  5>  %cpcm
|  6>     smd true
|  7>     SMDsolvent "Acetone"
|  8>  end
|  9>  
| 10> 
| 11>   * xyz 0 1
| 12> O            2.80437128074077       -0.77183824835257       -1.56940176325229
| 13> C            2.01339428412150       -0.73941652886219       -0.61954845968300
| 14> C            0.71146432624396       -1.37194843972700       -0.60759621095680
| 15> C           -0.12688761002076       -1.29797121288449        0.47840476695000
| 16> C           -1.50141010868537       -1.90258263380707        0.46993635877105
| 17> C           -2.46787745570647       -1.09628997039678       -0.40915966281569
| 18> C           -2.50249230504194        0.38500389569048       -0.01639752031528
| 19> C           -1.32719014412336        1.13233827267752       -0.62009405724690
| 20> O           -1.06503074374888        1.05069340286123       -1.80285582615400
| 21> C           -0.53364368872113        1.96689189369751        0.30792737227418
| 22> C            0.64965136569941        2.45831792554569       -0.04632800509313
| 23> C            2.30548376243441       -0.05977778623769        0.61636332694778
| 24> O            1.50260700201663       -0.04236406499567        1.64349752834059
| 25> C            0.32277303280860       -0.60990934249318        1.60865399523582
| 26> H            0.41447217944056       -1.90341299219965       -1.49940018437123
| 27> H           -1.44760683799039       -2.92120665468268        0.08298323318838
| 28> H           -1.88662940674497       -1.94090031616481        1.48996938736932
| 29> H           -3.46445934208089       -1.52859825567955       -0.31412478350075
| 30> H           -2.16428025454960       -1.16363261374888       -1.45528193433925
| 31> H           -2.52960484420624        0.49799437844927        1.06669665702896
| 32> H           -3.40502075974873        0.83729983878241       -0.43548914343864
| 33> H           -0.95162506738827        2.14855203766751        1.28749993074874
| 34> H            1.04741068189779        2.25862266822777       -1.02896269673506
| 35> H            1.24852261241566        3.06032176177357        0.61563473733953
| 36> H            3.24488743602320        0.45167591556861        0.76940731895147
| 37> H           -0.23530239508546       -0.51828593070941        2.52687863475800
| 38> 
| 39>   *
| 40> 
| 41>                          ****END OF INPUT****
================================================================================

                       ****************************
                       * Single Point Calculation *
                       ****************************

---------------------------------
CARTESIAN COORDINATES (ANGSTROEM)
---------------------------------
  O      2.804371   -0.771838   -1.569402
  C      2.013394   -0.739417   -0.619548
  C      0.711464   -1.371948   -0.607596
  C     -0.126888   -1.297971    0.478405
  C     -1.501410   -1.902583    0.469936
  C     -2.467877   -1.096290   -0.409160
  C     -2.502492    0.385004   -0.016398
  C     -1.327190    1.132338   -0.620094
  O     -1.065031    1.050693   -1.802856
  C     -0.533644    1.966892    0.307927
  C      0.649651    2.458318   -0.046328
  C      2.305484   -0.059778    0.616363
  O      1.502607   -0.042364    1.643498
  C      0.322773   -0.609909    1.608654
  H      0.414472   -1.903413   -1.499400
  H     -1.447607   -2.921207    0.082983
  H     -1.886629   -1.940900    1.489969
  H     -3.464459   -1.528598   -0.314125
  H     -2.164280   -1.163633   -1.455282
  H     -2.529605    0.497994    1.066697
  H     -3.405021    0.837300   -0.435489
  H     -0.951625    2.148552    1.287500
  H      1.047411    2.258623   -1.028963
  H      1.248523    3.060322    0.615635
  H      3.244887    0.451676    0.769407
  H     -0.235302   -0.518286    2.526879

----------------------------
CARTESIAN COORDINATES (A.U.)
----------------------------
  NO LB      ZA    FRAG     MASS         X           Y           Z
   0 O     8.0000    0    15.999    5.299494   -1.458563   -2.965740
   1 C     6.0000    0    12.011    3.804764   -1.397295   -1.170777
   2 C     6.0000    0    12.011    1.344473   -2.592607   -1.148190
   3 C     6.0000    0    12.011   -0.239783   -2.452810    0.904054
   4 C     6.0000    0    12.011   -2.837254   -3.595360    0.888051
   5 C     6.0000    0    12.011   -4.663613   -2.071688   -0.773200
   6 C     6.0000    0    12.011   -4.729025    0.727552   -0.030987
   7 C     6.0000    0    12.011   -2.508026    2.139809   -1.171808
   8 O     8.0000    0    15.999   -2.012616    1.985523   -3.406904
   9 C     6.0000    0    12.011   -1.008440    3.716887    0.581898
  10 C     6.0000    0    12.011    1.227663    4.645548   -0.087547
  11 C     6.0000    0    12.011    4.356733   -0.112964    1.164758
  12 O     8.0000    0    15.999    2.839516   -0.080056    3.105760
  13 C     6.0000    0    12.011    0.609953   -1.152562    3.039915
  14 H     1.0000    0     1.008    0.783239   -3.596929   -2.833456
  15 H     1.0000    0     1.008   -2.735580   -5.520281    0.156816
  16 H     1.0000    0     1.008   -3.565213   -3.667770    2.815634
  17 H     1.0000    0     1.008   -6.546879   -2.888632   -0.593610
  18 H     1.0000    0     1.008   -4.089897   -2.198947   -2.750084
  19 H     1.0000    0     1.008   -4.780260    0.941073    2.015765
  20 H     1.0000    0     1.008   -6.434557    1.582267   -0.822955
  21 H     1.0000    0     1.008   -1.798311    4.060175    2.433022
  22 H     1.0000    0     1.008    1.979319    4.268178   -1.944458
  23 H     1.0000    0     1.008    2.359366    5.783170    1.163381
  24 H     1.0000    0     1.008    6.131949    0.853544    1.453969
  25 H     1.0000    0     1.008   -0.444657   -0.979418    4.775109



           ************************************************************
           *        Program running with 16 parallel MPI-processes    *
           *              working on a common directory               *
           ************************************************************
------------------------------------------------------------------------------
                   ___                                                        
                  /   \      - P O W E R E D   B Y -                         
                 /     \                                                     
                 |  |  |   _    _      __       _____    __    __             
                 |  |  |  | |  | |    /  \     |  _  \  |  |  /  |          
                  \  \/   | |  | |   /    \    | | | |  |  | /  /          
                 / \  \   | |__| |  /  /\  \   | |_| |  |  |/  /          
                |  |  |   |  __  | /  /__\  \  |    /   |      \           
                |  |  |   | |  | | |   __   |  |    \   |  |\   \          
                \     /   | |  | | |  |  |  |  | |\  \  |  | \   \       
                 \___/    |_|  |_| |__|  |__|  |_| \__\ |__|  \__/        
                                                                              
                      - O R C A' S   B I G   F R I E N D -                    
                                      &                                       
                       - I N T E G R A L  F E E D E R -                       
                                                                              
 v1 FN, 2020, v2 2021                                                         
------------------------------------------------------------------------------


Reading SHARK input file reactant_complex_70dc5dce.SHARKINP.tmp ... ok
----------------------
SHARK INTEGRAL PACKAGE
----------------------

Number of atoms                             ...     26
Number of basis functions                   ...    602
Number of shells                            ...    226
Maximum angular momentum                    ...      3
Integral batch strategy                     ... SHARK/LIBINT Hybrid
RI-J (if used) integral strategy            ... SPLIT-RIJ (Revised 2003 algorithm where possible)
Printlevel                                  ...      1
Contraction scheme used                     ... SEGMENTED contraction
Coulomb Range Separation                    ... NOT USED
Exchange Range Separation                   ... Long Range
   Mu parameter                             ...  0.300000
   Scaling (regular/separated)              ...  0.167000  0.833000
Finite Nucleus Model                        ... NOT USED
Auxiliary Coulomb fitting basis             ... AVAILABLE
   # of basis functions in Aux-J            ...    818
   # of shells in Aux-J                     ...    270
   Maximum angular momentum in Aux-J        ...      4
Auxiliary J/K fitting basis                 ... NOT available
Auxiliary Correlation fitting basis         ... NOT available
Auxiliary 'external' fitting basis          ... NOT available
Integral threshold                          ...     2.500000e-11
Primitive cut-off                           ...     2.500000e-12
Primitive pair pre-selection threshold      ...     2.500000e-12

Calculating pre-screening integrals         ... done (  0.0 sec) Dimension = 226
Organizing shell pair data                  ... done (  0.2 sec)
Shell pair information
Total number of shell pairs                 ...     25651
Shell pairs after pre-screening             ...     21905
Total number of primitive shell pairs       ...     71220
Primitive shell pairs kept                  ...     43899
          la=0 lb=0:   4710 shell pairs
          la=1 lb=0:   6089 shell pairs
          la=1 lb=1:   2016 shell pairs
          la=2 lb=0:   3447 shell pairs
          la=2 lb=1:   2299 shell pairs
          la=2 lb=2:    681 shell pairs
          la=3 lb=0:   1250 shell pairs
          la=3 lb=1:    833 shell pairs
          la=3 lb=2:    483 shell pairs
          la=3 lb=3:     97 shell pairs

Calculating one electron integrals          ... done (  0.0 sec)
Calculating RI/J V-Matrix + Cholesky decomp.... done (  0.0 sec)
Calculating Nuclear repulsion               ... done (  0.0 sec) ENN=    916.103726840242 Eh

SHARK setup successfully completed in   0.5 seconds

Maximum memory used throughout the entire GTOINT-calculation: 34.5 MB


           ************************************************************
           *        Program running with 16 parallel MPI-processes    *
           *              working on a common directory               *
           ************************************************************

Diagonalization of the overlap matrix:
Smallest eigenvalue                        ... 2.990e-05
Time for diagonalization                   ...    0.033 sec
Threshold for overlap eigenvalues          ... 1.000e-08
Number of eigenvalues below threshold      ... 0
Time for construction of square roots      ...    0.043 sec
Total time needed                          ...    0.078 sec

Time for model grid setup =    0.089 sec

Loading Hartree-Fock densities                     ... done
Calculating cut-offs                               ... done
Initializing the effective Hamiltonian             ... done
Setting up the integral package (SHARK)            ... done
Starting the Coulomb interaction                   ... done (   0.1 sec)
Reading the grid                                   ... done
Mapping shells                                     ... done
Starting the XC term evaluation                    ... done (   0.1 sec)
  promolecular density results
     # of electrons  =    102.000806606
     EX              =    -57.073991963
     EC              =     -4.249141815
     EX+EC           =    -61.323133778
Transforming the Hamiltonian                       ... done (   0.0 sec)
Diagonalizing the Hamiltonian                      ... done (   0.0 sec)
Back transforming the eigenvectors                 ... done (   0.0 sec)
Now organizing SCF variables                       ... done
-------------------
DFT GRID GENERATION
-------------------

General Integration Accuracy     IntAcc      ... 4.388
Radial Grid Type                 RadialGrid  ... OptM3 with GC (2021)
Angular Grid (max. ang.)         AngularGrid ... 4 (Lebedev-302)
Angular grid pruning method      GridPruning ... 4 (adaptive)
Weight generation scheme         WeightScheme... Becke
Basis function cutoff            BFCut       ... 1.0000e-11
Integration weight cutoff        WCut        ... 1.0000e-14
Angular grids for H and He will be reduced by one unit
Partially contracted basis set               ... off
Rotationally invariant grid construction     ... off

Total number of grid points                  ...   121896
Total number of batches                      ...     1921
Average number of points per batch           ...       63
Average number of grid points per atom       ...     4688
Time for grid setup =    0.443 sec

--------------------
COSX GRID GENERATION
--------------------

GRIDX 1
-------
General Integration Accuracy     IntAcc      ... 3.816
Radial Grid Type                 RadialGrid  ... OptM3 with GC (2021)
Angular Grid (max. ang.)         AngularGrid ... 1 (Lebedev-50)
Angular grid pruning method      GridPruning ... 4 (adaptive)
Weight generation scheme         WeightScheme... Becke
Basis function cutoff            BFCut       ... 1.0000e-11
Integration weight cutoff        WCut        ... 1.0000e-14
Angular grids for H and He will be reduced by one unit
Partially contracted basis set               ... on
Rotationally invariant grid construction     ... off

Total number of grid points                  ...    15487
Total number of batches                      ...      257
Average number of points per batch           ...       60
Average number of grid points per atom       ...      596
UseSFitting                                  ... on

GRIDX 2
-------
General Integration Accuracy     IntAcc      ... 4.020
Radial Grid Type                 RadialGrid  ... OptM3 with GC (2021)
Angular Grid (max. ang.)         AngularGrid ... 2 (Lebedev-110)
Angular grid pruning method      GridPruning ... 4 (adaptive)
Weight generation scheme         WeightScheme... Becke
Basis function cutoff            BFCut       ... 1.0000e-11
Integration weight cutoff        WCut        ... 1.0000e-14
Angular grids for H and He will be reduced by one unit
Partially contracted basis set               ... on
Rotationally invariant grid construction     ... off

Total number of grid points                  ...    33576
Total number of batches                      ...      537
Average number of points per batch           ...       62
Average number of grid points per atom       ...     1291
UseSFitting                                  ... on

GRIDX 3
-------
General Integration Accuracy     IntAcc      ... 4.338
Radial Grid Type                 RadialGrid  ... OptM3 with GC (2021)
Angular Grid (max. ang.)         AngularGrid ... 3 (Lebedev-194)
Angular grid pruning method      GridPruning ... 4 (adaptive)
Weight generation scheme         WeightScheme... Becke
Basis function cutoff            BFCut       ... 1.0000e-11
Integration weight cutoff        WCut        ... 1.0000e-14
Angular grids for H and He will be reduced by one unit
Partially contracted basis set               ... on
Rotationally invariant grid construction     ... off

Total number of grid points                  ...    73455
Total number of batches                      ...     1159
Average number of points per batch           ...       63
Average number of grid points per atom       ...     2825
UseSFitting                                  ... on

Time for X-Grid setup             =    0.613 sec


--------------------
CPCM SOLVATION MODEL
--------------------
CPCM parameters:
  Epsilon                                         ...      20.4930
  Refrac                                          ...       1.3588
  Rsolv                                           ...       1.3000
  Surface type                                    ... GAUSSIAN VDW
  Epsilon function type                           ...         CPCM
Solvent:                                     ... ACETONE
SMD-CDS solvent descriptors:
  Soln                                       ...    1.3588
  Soln25                                     ...    1.3559
  Sola                                       ...    0.0400
  Solb                                       ...    0.4900
  Solg                                       ...   33.7700
  Solc                                       ...    0.0000
  Solh                                       ...    0.0000
Radii:
 Radius for O  used is    4.1990 Bohr (=   2.2220 Ang.)
 Radius for C  used is    3.4960 Bohr (=   1.8500 Ang.)
 Radius for H  used is    2.2677 Bohr (=   1.2000 Ang.)
Calculating surface                               ...        done! (  0.0s)
GEPOL surface points                              ...         1429
GEPOL Volume                                      ...    1609.6047
GEPOL Surface-area                                ...     837.3019
Calculating surface distance matrix               ...        done! (  0.0s)
Performing Cholesky decomposition & store         ...        done! (  0.1s)
Overall time for CPCM initialization              ...                 0.1s
--------------
SCF ITERATIONS
--------------
ITER       Energy         Delta-E        Max-DP      RMS-DP      [F,P]     Damp
               ***  Starting incremental Fock matrix formation  ***
  0   -652.2781742077   0.000000000000 0.04757566  0.00051436  0.3585189 0.7000
  1   -652.3399436134  -0.061769405691 0.04494620  0.00044432  0.2357657 0.7000
                               ***Turning on DIIS***
  2   -652.3719396090  -0.031995995607 0.04035187  0.00033914  0.1632007 0.7000
  3   -652.3918680631  -0.019928454092 0.04530444  0.00028904  0.1131419 0.7000
  4   -652.4058496289  -0.013981565835 0.12449334  0.00077376  0.0779201 0.0000
  5   -652.4395073863  -0.033657757388 0.00835821  0.00008475  0.0048809 0.0000
                      *** Initiating the SOSCF procedure ***
                           *** Shutting down DIIS ***
                      *** Re-Reading the Fockian *** 
                      *** Removing any level shift *** 
ITER      Energy       Delta-E        Grad      Rot      Max-DP    RMS-DP
  6   -652.43973014  -0.0002227574  0.001712  0.001712  0.008825  0.000047
               *** Restarting incremental Fock matrix formation ***
  7   -652.43979684  -0.0000666972  0.001271  0.004304  0.002717  0.000032
  8   -652.43983902  -0.0000421777  0.000581  0.005262  0.006776  0.000043
  9   -652.43985130  -0.0000122857  0.000363  0.000892  0.003905  0.000016
 10   -652.43985645  -0.0000051432  0.000102  0.000427  0.000323  0.000003
 11   -652.43985678  -0.0000003320  0.000028  0.000202  0.000482  0.000002
 12   -652.43985687  -0.0000000893  0.000042  0.000248  0.000186  0.000001
 13   -652.43985688  -0.0000000163  0.000006  0.000011  0.000057  0.000000
 14   -652.43985689  -0.0000000056  0.000003  0.000023  0.000037  0.000000
                  ***Gradient check signals convergence***
              ***Rediagonalizing the Fockian in SOSCF/NRSCF***

               *****************************************************
               *                     SUCCESS                       *
               *           SCF CONVERGED AFTER  15 CYCLES          *
               *****************************************************

Old exchange energy                            =    -27.694797133 Eh
New exchange energy                            =    -27.694799160 Eh
Exchange energy change after final integration =     -0.000002028 Eh
Total energy after final integration           =   -652.439858895 Eh
Final COS-X integration done in                =     7.573 sec

SMD CDS free energy correction energy :                -3.75923     Kcal/mol
Total Energy after SMD CDS correction =              -652.445849610 Eh
Total Energy       :         -652.44584961 Eh          -17753.95416 eV
  Last Energy change         ...    2.3603e-08  Tolerance :   1.0000e-08
  Last MAX-Density change    ...    1.5543e-15  Tolerance :   1.0000e-07
             **** THE GBW FILE WAS UPDATED (reactant_complex_70dc5dce.gbw) ****
             **** DENSITY reactant_complex_70dc5dce.scfp WAS UPDATED ****
             **** ENERGY FILE WAS UPDATED (reactant_complex_70dc5dce.en.tmp) ****
             **** THE GBW FILE WAS UPDATED (reactant_complex_70dc5dce.gbw) ****
             **** DENSITY reactant_complex_70dc5dce.scfp WAS UPDATED ****
----------------
ORBITAL ENERGIES
----------------

  NO   OCC          E(Eh)            E(eV) 
   0   2.0000     -19.342233      -526.3289 
   1   2.0000     -19.197583      -522.3928 
   2   2.0000     -19.146084      -520.9914 
   3   2.0000     -10.357169      -281.8329 
   4   2.0000     -10.351402      -281.6760 
   5   2.0000     -10.346800      -281.5508 
   6   2.0000     -10.336289      -281.2647 
   7   2.0000     -10.303255      -280.3658 
   8   2.0000     -10.287131      -279.9271 
   9   2.0000     -10.278892      -279.7029 
  10   2.0000     -10.274353      -279.5794 
  11   2.0000     -10.272482      -279.5284 
  12   2.0000     -10.268467      -279.4192 
  13   2.0000     -10.266521      -279.3662 
  14   2.0000      -1.304575       -35.4993 
  15   2.0000      -1.173267       -31.9262 
  16   2.0000      -1.127009       -30.6675 
  17   2.0000      -0.986037       -26.8314 
  18   2.0000      -0.928974       -25.2787 
  19   2.0000      -0.923503       -25.1298 
  20   2.0000      -0.914495       -24.8847 
  21   2.0000      -0.850579       -23.1454 
  22   2.0000      -0.791565       -21.5396 
  23   2.0000      -0.777496       -21.1568 
  24   2.0000      -0.741992       -20.1906 
  25   2.0000      -0.701595       -19.0914 
  26   2.0000      -0.673516       -18.3273 
  27   2.0000      -0.656424       -17.8622 
  28   2.0000      -0.637547       -17.3485 
  29   2.0000      -0.625855       -17.0304 
  30   2.0000      -0.609971       -16.5982 
  31   2.0000      -0.583707       -15.8835 
  32   2.0000      -0.571421       -15.5492 
  33   2.0000      -0.564921       -15.3723 
  34   2.0000      -0.558574       -15.1996 
  35   2.0000      -0.542330       -14.7576 
  36   2.0000      -0.532763       -14.4972 
  37   2.0000      -0.511273       -13.9124 
  38   2.0000      -0.504812       -13.7366 
  39   2.0000      -0.496187       -13.5019 
  40   2.0000      -0.488046       -13.2804 
  41   2.0000      -0.478061       -13.0087 
  42   2.0000      -0.469897       -12.7866 
  43   2.0000      -0.452845       -12.3225 
  44   2.0000      -0.450279       -12.2527 
  45   2.0000      -0.438521       -11.9328 
  46   2.0000      -0.387377       -10.5411 
  47   2.0000      -0.379214       -10.3189 
  48   2.0000      -0.357291        -9.7224 
  49   2.0000      -0.338682        -9.2160 
  50   2.0000      -0.296574        -8.0702 
  51   0.0000      -0.001331        -0.0362 
  52   0.0000       0.026512         0.7214 
  53   0.0000       0.074784         2.0350 
  54   0.0000       0.122786         3.3412 
  55   0.0000       0.141679         3.8553 
  56   0.0000       0.148110         4.0303 
  57   0.0000       0.151009         4.1092 
  58   0.0000       0.164988         4.4895 
  59   0.0000       0.170816         4.6481 
  60   0.0000       0.178410         4.8548 
  61   0.0000       0.181644         4.9428 
  62   0.0000       0.183674         4.9980 
  63   0.0000       0.192654         5.2424 
  64   0.0000       0.206320         5.6143 
  65   0.0000       0.208429         5.6716 
  66   0.0000       0.220458         5.9990 
  67   0.0000       0.222896         6.0653 
  68   0.0000       0.234189         6.3726 
  69   0.0000       0.240330         6.5397 
  70   0.0000       0.253059         6.8861 
  71   0.0000       0.262453         7.1417 
  72   0.0000       0.269424         7.3314 
  73   0.0000       0.271566         7.3897 
  74   0.0000       0.278020         7.5653 
  75   0.0000       0.299461         8.1487 
  76   0.0000       0.303617         8.2618 
  77   0.0000       0.311152         8.4669 
  78   0.0000       0.327038         8.8992 
  79   0.0000       0.329198         8.9579 
  80   0.0000       0.338956         9.2235 
  81   0.0000       0.341163         9.2835 
  82   0.0000       0.344125         9.3641 
  83   0.0000       0.355739         9.6801 
  84   0.0000       0.357988         9.7414 
  85   0.0000       0.372950        10.1485 
  86   0.0000       0.374335        10.1862 
  87   0.0000       0.380111        10.3434 
  88   0.0000       0.391814        10.6618 
  89   0.0000       0.397994        10.8300 
  90   0.0000       0.404776        11.0145 
  91   0.0000       0.407022        11.0756 
  92   0.0000       0.421071        11.4579 
  93   0.0000       0.435225        11.8431 
  94   0.0000       0.438422        11.9301 
  95   0.0000       0.445303        12.1173 
  96   0.0000       0.451899        12.2968 
  97   0.0000       0.454517        12.3680 
  98   0.0000       0.466409        12.6916 
  99   0.0000       0.476644        12.9702 
 100   0.0000       0.480495        13.0749 
 101   0.0000       0.488388        13.2897 
 102   0.0000       0.497391        13.5347 
 103   0.0000       0.500704        13.6248 
 104   0.0000       0.506085        13.7713 
 105   0.0000       0.511261        13.9121 
 106   0.0000       0.516110        14.0441 
 107   0.0000       0.517887        14.0924 
 108   0.0000       0.528171        14.3723 
 109   0.0000       0.534363        14.5408 
 110   0.0000       0.536523        14.5995 
 111   0.0000       0.545034        14.8311 
 112   0.0000       0.547727        14.9044 
 113   0.0000       0.553321        15.0566 
 114   0.0000       0.559155        15.2154 
 115   0.0000       0.563850        15.3431 
 116   0.0000       0.565896        15.3988 
 117   0.0000       0.576014        15.6741 
 118   0.0000       0.584382        15.9018 
 119   0.0000       0.596005        16.2181 
 120   0.0000       0.606203        16.4956 
 121   0.0000       0.609859        16.5951 
 122   0.0000       0.620053        16.8725 
 123   0.0000       0.633536        17.2394 
 124   0.0000       0.637542        17.3484 
 125   0.0000       0.645014        17.5517 
 126   0.0000       0.663808        18.0631 
 127   0.0000       0.670315        18.2402 
 128   0.0000       0.676840        18.4177 
 129   0.0000       0.689531        18.7631 
 130   0.0000       0.705138        19.1878 
 131   0.0000       0.707620        19.2553 
 132   0.0000       0.716657        19.5012 
 133   0.0000       0.723281        19.6815 
 134   0.0000       0.731563        19.9068 
 135   0.0000       0.742625        20.2079 
 136   0.0000       0.754740        20.5375 
 137   0.0000       0.759526        20.6678 
 138   0.0000       0.767682        20.8897 
 139   0.0000       0.781006        21.2523 
 140   0.0000       0.791414        21.5355 
 141   0.0000       0.802499        21.8371 
 142   0.0000       0.815895        22.2016 
 143   0.0000       0.821302        22.3488 
 144   0.0000       0.832947        22.6656 
 145   0.0000       0.836575        22.7644 
 146   0.0000       0.850953        23.1556 
 147   0.0000       0.862264        23.4634 
 148   0.0000       0.875206        23.8156 
 149   0.0000       0.876700        23.8562 
 150   0.0000       0.894207        24.3326 
 151   0.0000       0.902177        24.5495 
 152   0.0000       0.914674        24.8895 
 153   0.0000       0.922414        25.1002 
 154   0.0000       0.932412        25.3722 
 155   0.0000       0.946604        25.7584 
 156   0.0000       0.952770        25.9262 
 157   0.0000       0.955792        26.0084 
 158   0.0000       0.972860        26.4729 
 159   0.0000       0.984352        26.7856 
 160   0.0000       0.990685        26.9579 
 161   0.0000       0.994952        27.0740 
 162   0.0000       0.999809        27.2062 
 163   0.0000       1.008455        27.4415 
 164   0.0000       1.008833        27.4517 
 165   0.0000       1.034208        28.1422 
 166   0.0000       1.041834        28.3497 
 167   0.0000       1.054413        28.6920 
 168   0.0000       1.062661        28.9165 
 169   0.0000       1.070118        29.1194 
 170   0.0000       1.072339        29.1798 
 171   0.0000       1.089682        29.6518 
 172   0.0000       1.103306        30.0225 
 173   0.0000       1.113823        30.3087 
 174   0.0000       1.132726        30.8230 
 175   0.0000       1.140660        31.0389 
 176   0.0000       1.148441        31.2507 
 177   0.0000       1.160958        31.5913 
 178   0.0000       1.165687        31.7200 
 179   0.0000       1.173766        31.9398 
 180   0.0000       1.191736        32.4288 
 181   0.0000       1.199957        32.6525 
 182   0.0000       1.207220        32.8501 
 183   0.0000       1.218872        33.1672 
 184   0.0000       1.229747        33.4631 
 185   0.0000       1.235077        33.6082 
 186   0.0000       1.243612        33.8404 
 187   0.0000       1.252079        34.0708 
 188   0.0000       1.256401        34.1884 
 189   0.0000       1.270067        34.5603 
 190   0.0000       1.272318        34.6215 
 191   0.0000       1.284538        34.9541 
 192   0.0000       1.289091        35.0779 
 193   0.0000       1.299382        35.3580 
 194   0.0000       1.316220        35.8162 
 195   0.0000       1.323405        36.0117 
 196   0.0000       1.336643        36.3719 
 197   0.0000       1.347043        36.6549 
 198   0.0000       1.355240        36.8780 
 199   0.0000       1.359379        36.9906 
 200   0.0000       1.365755        37.1641 
 201   0.0000       1.388482        37.7825 
 202   0.0000       1.393561        37.9207 
 203   0.0000       1.401183        38.1281 
 204   0.0000       1.412299        38.4306 
 205   0.0000       1.427806        38.8526 
 206   0.0000       1.431141        38.9433 
 207   0.0000       1.436959        39.1016 
 208   0.0000       1.453053        39.5396 
 209   0.0000       1.463480        39.8233 
 210   0.0000       1.476028        40.1648 
 211   0.0000       1.486027        40.4368 
 212   0.0000       1.498739        40.7828 
 213   0.0000       1.504978        40.9525 
 214   0.0000       1.527731        41.5717 
 215   0.0000       1.533741        41.7352 
 216   0.0000       1.540299        41.9137 
 217   0.0000       1.551062        42.2065 
 218   0.0000       1.556924        42.3661 
 219   0.0000       1.565292        42.5938 
 220   0.0000       1.574724        42.8504 
 221   0.0000       1.587519        43.1986 
 222   0.0000       1.596909        43.4541 
 223   0.0000       1.603627        43.6369 
 224   0.0000       1.615798        43.9681 
 225   0.0000       1.628162        44.3045 
 226   0.0000       1.633818        44.4584 
 227   0.0000       1.638306        44.5806 
 228   0.0000       1.649920        44.8966 
 229   0.0000       1.653589        44.9964 
 230   0.0000       1.661883        45.2221 
 231   0.0000       1.674901        45.5764 
 232   0.0000       1.681817        45.7646 
 233   0.0000       1.697377        46.1880 
 234   0.0000       1.702479        46.3268 
 235   0.0000       1.709372        46.5144 
 236   0.0000       1.725313        46.9482 
 237   0.0000       1.727831        47.0167 
 238   0.0000       1.734788        47.2060 
 239   0.0000       1.749351        47.6023 
 240   0.0000       1.753665        47.7197 
 241   0.0000       1.779388        48.4196 
 242   0.0000       1.787644        48.6443 
 243   0.0000       1.795467        48.8571 
 244   0.0000       1.799300        48.9614 
 245   0.0000       1.807941        49.1966 
 246   0.0000       1.814649        49.3791 
 247   0.0000       1.828340        49.7517 
 248   0.0000       1.840867        50.0925 
 249   0.0000       1.848688        50.3054 
 250   0.0000       1.865723        50.7689 
 251   0.0000       1.875125        51.0247 
 252   0.0000       1.893970        51.5375 
 253   0.0000       1.906128        51.8684 
 254   0.0000       1.912352        52.0377 
 255   0.0000       1.934760        52.6475 
 256   0.0000       1.974207        53.7209 
 257   0.0000       1.989084        54.1257 
 258   0.0000       1.999467        54.4083 
 259   0.0000       2.017182        54.8903 
 260   0.0000       2.030570        55.2546 
 261   0.0000       2.042690        55.5844 
 262   0.0000       2.048554        55.7440 
 263   0.0000       2.084935        56.7340 
 264   0.0000       2.096157        57.0393 
 265   0.0000       2.106872        57.3309 
 266   0.0000       2.111132        57.4468 
 267   0.0000       2.144609        58.3578 
 268   0.0000       2.155582        58.6564 
 269   0.0000       2.183789        59.4239 
 270   0.0000       2.195804        59.7509 
 271   0.0000       2.213104        60.2216 
 272   0.0000       2.239246        60.9330 
 273   0.0000       2.253314        61.3158 
 274   0.0000       2.260933        61.5231 
 275   0.0000       2.266619        61.6778 
 276   0.0000       2.282487        62.1096 
 277   0.0000       2.290808        62.3361 
 278   0.0000       2.311931        62.9108 
 279   0.0000       2.336288        63.5736 
 280   0.0000       2.362724        64.2930 
 281   0.0000       2.366120        64.3854 
 282   0.0000       2.391221        65.0684 
 283   0.0000       2.415752        65.7360 
 284   0.0000       2.434322        66.2413 
 285   0.0000       2.450394        66.6786 
 286   0.0000       2.458532        66.9000 
 287   0.0000       2.474608        67.3375 
 288   0.0000       2.498403        67.9850 
 289   0.0000       2.511522        68.3420 
 290   0.0000       2.524786        68.7029 
 291   0.0000       2.542780        69.1925 
 292   0.0000       2.547780        69.3286 
 293   0.0000       2.586070        70.3705 
 294   0.0000       2.597157        70.6722 
 295   0.0000       2.603830        70.8538 
 296   0.0000       2.639990        71.8378 
 297   0.0000       2.649553        72.0980 
 298   0.0000       2.659745        72.3753 
 299   0.0000       2.671654        72.6994 
 300   0.0000       2.683713        73.0275 
 301   0.0000       2.707087        73.6636 
 302   0.0000       2.725043        74.1522 
 303   0.0000       2.738385        74.5152 
 304   0.0000       2.748692        74.7957 
 305   0.0000       2.759835        75.0989 
 306   0.0000       2.768467        75.3338 
 307   0.0000       2.790955        75.9458 
 308   0.0000       2.794852        76.0518 
 309   0.0000       2.806403        76.3661 
 310   0.0000       2.817613        76.6712 
 311   0.0000       2.823771        76.8387 
 312   0.0000       2.839491        77.2665 
 313   0.0000       2.847302        77.4790 
 314   0.0000       2.852390        77.6175 
 315   0.0000       2.864812        77.9555 
 316   0.0000       2.873394        78.1890 
 317   0.0000       2.888318        78.5951 
 318   0.0000       2.899013        78.8862 
 319   0.0000       2.910532        79.1996 
 320   0.0000       2.919553        79.4451 
 321   0.0000       2.933284        79.8187 
 322   0.0000       2.937841        79.9427 
 323   0.0000       2.952328        80.3369 
 324   0.0000       2.958826        80.5138 
 325   0.0000       2.972854        80.8955 
 326   0.0000       2.986232        81.2595 
 327   0.0000       2.988617        81.3244 
 328   0.0000       2.995778        81.5193 
 329   0.0000       3.012966        81.9870 
 330   0.0000       3.024027        82.2880 
 331   0.0000       3.030950        82.4764 
 332   0.0000       3.036657        82.6316 
 333   0.0000       3.051491        83.0353 
 334   0.0000       3.062178        83.3261 
 335   0.0000       3.081244        83.8449 
 336   0.0000       3.085253        83.9540 
 337   0.0000       3.094779        84.2132 
 338   0.0000       3.098426        84.3125 
 339   0.0000       3.108748        84.5933 
 340   0.0000       3.122068        84.9558 
 341   0.0000       3.130166        85.1762 
 342   0.0000       3.134224        85.2866 
 343   0.0000       3.143695        85.5443 
 344   0.0000       3.149318        85.6973 
 345   0.0000       3.172121        86.3178 
 346   0.0000       3.178805        86.4997 
 347   0.0000       3.185149        86.6723 
 348   0.0000       3.191493        86.8449 
 349   0.0000       3.201585        87.1196 
 350   0.0000       3.207597        87.2831 
 351   0.0000       3.216749        87.5322 
 352   0.0000       3.217061        87.5407 
 353   0.0000       3.234740        88.0217 
 354   0.0000       3.256825        88.6227 
 355   0.0000       3.259578        88.6976 
 356   0.0000       3.269348        88.9635 
 357   0.0000       3.280272        89.2607 
 358   0.0000       3.290451        89.5377 
 359   0.0000       3.294663        89.6523 
 360   0.0000       3.297605        89.7324 
 361   0.0000       3.300781        89.8188 
 362   0.0000       3.311764        90.1177 
 363   0.0000       3.319421        90.3260 
 364   0.0000       3.329767        90.6076 
 365   0.0000       3.333428        90.7072 
 366   0.0000       3.349601        91.1473 
 367   0.0000       3.352729        91.2324 
 368   0.0000       3.364474        91.5520 
 369   0.0000       3.373898        91.8084 
 370   0.0000       3.383918        92.0811 
 371   0.0000       3.403998        92.6275 
 372   0.0000       3.404932        92.6529 
 373   0.0000       3.415391        92.9375 
 374   0.0000       3.425359        93.2087 
 375   0.0000       3.427716        93.2729 
 376   0.0000       3.438823        93.5751 
 377   0.0000       3.454635        94.0054 
 378   0.0000       3.461627        94.1957 
 379   0.0000       3.467960        94.3680 
 380   0.0000       3.473013        94.5055 
 381   0.0000       3.489609        94.9571 
 382   0.0000       3.496398        95.1418 
 383   0.0000       3.508329        95.4665 
 384   0.0000       3.516847        95.6983 
 385   0.0000       3.527395        95.9853 
 386   0.0000       3.538411        96.2851 
 387   0.0000       3.547179        96.5237 
 388   0.0000       3.564124        96.9847 
 389   0.0000       3.576849        97.3310 
 390   0.0000       3.583442        97.5104 
 391   0.0000       3.591332        97.7251 
 392   0.0000       3.608377        98.1889 
 393   0.0000       3.621610        98.5490 
 394   0.0000       3.626611        98.6851 
 395   0.0000       3.645135        99.1892 
 396   0.0000       3.652770        99.3969 
 397   0.0000       3.654580        99.4462 
 398   0.0000       3.665388        99.7403 
 399   0.0000       3.678720       100.1031 
 400   0.0000       3.686348       100.3106 
 401   0.0000       3.694894       100.5432 
 402   0.0000       3.708065       100.9016 
 403   0.0000       3.720465       101.2390 
 404   0.0000       3.741696       101.8167 
 405   0.0000       3.748017       101.9887 
 406   0.0000       3.752988       102.1240 
 407   0.0000       3.766692       102.4969 
 408   0.0000       3.772835       102.6641 
 409   0.0000       3.783807       102.9626 
 410   0.0000       3.800571       103.4188 
 411   0.0000       3.811955       103.7286 
 412   0.0000       3.817440       103.8778 
 413   0.0000       3.822485       104.0151 
 414   0.0000       3.832235       104.2804 
 415   0.0000       3.838004       104.4374 
 416   0.0000       3.844529       104.6150 
 417   0.0000       3.852596       104.8345 
 418   0.0000       3.877111       105.5015 
 419   0.0000       3.884891       105.7133 
 420   0.0000       3.896999       106.0427 
 421   0.0000       3.905026       106.2612 
 422   0.0000       3.906066       106.2895 
 423   0.0000       3.927034       106.8600 
 424   0.0000       3.935375       107.0870 
 425   0.0000       3.948495       107.4440 
 426   0.0000       3.954486       107.6070 
 427   0.0000       3.964778       107.8871 
 428   0.0000       3.972164       108.0881 
 429   0.0000       4.000682       108.8641 
 430   0.0000       4.008873       109.0870 
 431   0.0000       4.025811       109.5479 
 432   0.0000       4.031818       109.7113 
 433   0.0000       4.041498       109.9747 
 434   0.0000       4.047005       110.1246 
 435   0.0000       4.059192       110.4562 
 436   0.0000       4.076514       110.9276 
 437   0.0000       4.092690       111.3678 
 438   0.0000       4.110245       111.8455 
 439   0.0000       4.120433       112.1227 
 440   0.0000       4.129786       112.3772 
 441   0.0000       4.143051       112.7382 
 442   0.0000       4.153155       113.0131 
 443   0.0000       4.156851       113.1137 
 444   0.0000       4.163519       113.2951 
 445   0.0000       4.167773       113.4109 
 446   0.0000       4.193166       114.1018 
 447   0.0000       4.198982       114.2601 
 448   0.0000       4.218323       114.7864 
 449   0.0000       4.227736       115.0425 
 450   0.0000       4.232651       115.1763 
 451   0.0000       4.235891       115.2645 
 452   0.0000       4.246317       115.5482 
 453   0.0000       4.250970       115.6748 
 454   0.0000       4.265428       116.0682 
 455   0.0000       4.275173       116.3334 
 456   0.0000       4.285770       116.6217 
 457   0.0000       4.306378       117.1825 
 458   0.0000       4.310374       117.2913 
 459   0.0000       4.318426       117.5103 
 460   0.0000       4.329047       117.7994 
 461   0.0000       4.336449       118.0008 
 462   0.0000       4.352219       118.4299 
 463   0.0000       4.353387       118.4617 
 464   0.0000       4.378403       119.1424 
 465   0.0000       4.390430       119.4697 
 466   0.0000       4.410245       120.0089 
 467   0.0000       4.431305       120.5819 
 468   0.0000       4.433294       120.6361 
 469   0.0000       4.439359       120.8011 
 470   0.0000       4.444742       120.9476 
 471   0.0000       4.462791       121.4387 
 472   0.0000       4.472035       121.6903 
 473   0.0000       4.486367       122.0803 
 474   0.0000       4.492337       122.2427 
 475   0.0000       4.520641       123.0129 
 476   0.0000       4.538514       123.4993 
 477   0.0000       4.548404       123.7684 
 478   0.0000       4.556406       123.9861 
 479   0.0000       4.564531       124.2072 
 480   0.0000       4.585376       124.7744 
 481   0.0000       4.593148       124.9859 
 482   0.0000       4.611075       125.4737 
 483   0.0000       4.630647       126.0063 
 484   0.0000       4.646980       126.4508 
 485   0.0000       4.663046       126.8879 
 486   0.0000       4.691132       127.6522 
 487   0.0000       4.696711       127.8040 
 488   0.0000       4.702996       127.9750 
 489   0.0000       4.743899       129.0881 
 490   0.0000       4.744815       129.1130 
 491   0.0000       4.784479       130.1923 
 492   0.0000       4.787136       130.2646 
 493   0.0000       4.806300       130.7861 
 494   0.0000       4.822230       131.2196 
 495   0.0000       4.840387       131.7136 
 496   0.0000       4.854013       132.0844 
 497   0.0000       4.864915       132.3811 
 498   0.0000       4.886229       132.9611 
 499   0.0000       4.908587       133.5694 
 500   0.0000       4.916954       133.7971 
 501   0.0000       4.927323       134.0793 
 502   0.0000       4.958748       134.9344 
 503   0.0000       4.978285       135.4660 
 504   0.0000       4.984202       135.6270 
 505   0.0000       4.998065       136.0043 
 506   0.0000       5.005579       136.2087 
 507   0.0000       5.026230       136.7707 
 508   0.0000       5.041558       137.1878 
 509   0.0000       5.060848       137.7127 
 510   0.0000       5.077577       138.1679 
 511   0.0000       5.084607       138.3592 
 512   0.0000       5.095605       138.6584 
 513   0.0000       5.107298       138.9766 
 514   0.0000       5.114333       139.1681 
 515   0.0000       5.125663       139.4764 
 516   0.0000       5.166761       140.5947 
 517   0.0000       5.178871       140.9242 
 518   0.0000       5.216088       141.9370 
 519   0.0000       5.232939       142.3955 
 520   0.0000       5.242679       142.6606 
 521   0.0000       5.243649       142.6869 
 522   0.0000       5.260739       143.1520 
 523   0.0000       5.265142       143.2718 
 524   0.0000       5.300990       144.2473 
 525   0.0000       5.314848       144.6244 
 526   0.0000       5.336785       145.2213 
 527   0.0000       5.339579       145.2973 
 528   0.0000       5.354042       145.6909 
 529   0.0000       5.357480       145.7844 
 530   0.0000       5.382666       146.4698 
 531   0.0000       5.412831       147.2906 
 532   0.0000       5.427634       147.6934 
 533   0.0000       5.463805       148.6777 
 534   0.0000       5.493055       149.4736 
 535   0.0000       5.495855       149.5498 
 536   0.0000       5.513829       150.0389 
 537   0.0000       5.540070       150.7530 
 538   0.0000       5.567248       151.4925 
 539   0.0000       5.580125       151.8429 
 540   0.0000       5.589777       152.1056 
 541   0.0000       5.606392       152.5577 
 542   0.0000       5.628154       153.1499 
 543   0.0000       5.637097       153.3932 
 544   0.0000       5.643707       153.5731 
 545   0.0000       5.656948       153.9334 
 546   0.0000       5.671733       154.3357 
 547   0.0000       5.692729       154.9070 
 548   0.0000       5.709724       155.3695 
 549   0.0000       5.720445       155.6612 
 550   0.0000       5.737608       156.1283 
 551   0.0000       5.762673       156.8103 
 552   0.0000       5.826211       158.5393 
 553   0.0000       5.836544       158.8204 
 554   0.0000       5.857573       159.3927 
 555   0.0000       5.869544       159.7184 
 556   0.0000       5.912495       160.8872 
 557   0.0000       5.929980       161.3629 
 558   0.0000       5.937039       161.5550 
 559   0.0000       5.941986       161.6897 
 560   0.0000       6.005026       163.4051 
 561   0.0000       6.088620       165.6798 
 562   0.0000       6.136619       166.9859 
 563   0.0000       6.278170       170.8377 
 564   0.0000       6.283658       170.9870 
 565   0.0000       6.325221       172.1180 
 566   0.0000       6.359690       173.0560 
 567   0.0000       6.545131       178.1021 
 568   0.0000       6.556072       178.3998 
 569   0.0000       6.558231       178.4585 
 570   0.0000       6.564889       178.6397 
 571   0.0000       6.695571       182.1957 
 572   0.0000       6.720789       182.8820 
 573   0.0000       6.737507       183.3369 
 574   0.0000       6.751591       183.7201 
 575   0.0000       6.827639       185.7895 
 576   0.0000       6.893209       187.5738 
 577   0.0000       6.957507       189.3234 
 578   0.0000       6.968139       189.6127 
 579   0.0000       6.988187       190.1582 
 580   0.0000       7.013117       190.8366 
 581   0.0000       7.137455       194.2200 
 582   0.0000       7.224791       196.5965 
 583   0.0000       7.238653       196.9738 
 584   0.0000       7.242551       197.0798 
 585   0.0000       7.296238       198.5407 
 586   0.0000       7.482723       203.6153 
 587   0.0000       7.522021       204.6846 
 588   0.0000      23.083894       628.1447 
 589   0.0000      23.190277       631.0395 
 590   0.0000      23.276158       633.3765 
 591   0.0000      23.347807       635.3261 
 592   0.0000      23.397759       636.6854 
 593   0.0000      23.484168       639.0367 
 594   0.0000      23.523494       640.1068 
 595   0.0000      23.554234       640.9433 
 596   0.0000      23.604869       642.3211 
 597   0.0000      23.819084       648.1502 
 598   0.0000      23.831101       648.4772 
 599   0.0000      44.095220      1199.8919 
 600   0.0000      44.192692      1202.5443 
 601   0.0000      44.434811      1209.1327 
Total SCF time: 0 days 0 hours 1 min 6 sec 

Maximum memory used throughout the entire SCF-calculation: 120.2 MB


-------------------------------------------------------------------------------
                          DFT DISPERSION CORRECTION                            
                                                                               
                              DFTD3 V3.1  Rev 1                                
                          USING Becke-Johnson damping                          
-------------------------------------------------------------------------------
-------------------------   ----------------
Dispersion correction           -0.058636366
-------------------------   ----------------


-------------------------   --------------------
FINAL SINGLE POINT ENERGY      -652.504485976154
-------------------------   --------------------


                            ***************************************
                            *     ORCA property calculations      *
                            ***************************************

                                    ---------------------
                                    Active property flags
                                    ---------------------
   (+) Dipole Moment


------------------------------------------------------------------------------
                       ORCA ELECTRIC PROPERTIES CALCULATION
------------------------------------------------------------------------------

Dipole Moment Calculation                       ... on
Quadrupole Moment Calculation                   ... off
Polarizability Calculation                      ... off
GBWName                                         ... reactant_complex_70dc5dce.gbw
Electron density                                ... reactant_complex_70dc5dce.scfp
The origin for moment calculation is the CENTER OF MASS  = ( 0.119449, -0.104019 -0.103908)

-------------
DIPOLE MOMENT
-------------
                                X             Y             Z
Electronic contribution:      7.88871       0.07671      -0.02962
Nuclear contribution   :    -10.16949      -0.05132       3.50971
                        -----------------------------------------
Total Dipole Moment    :     -2.28078       0.02539       3.48009
                        -----------------------------------------
Magnitude (a.u.)       :      4.16096
Magnitude (Debye)      :     10.57633



--------------------
Rotational spectrum 
--------------------
 
Rotational constants in cm-1:     0.032283     0.021938     0.019175 
Rotational constants in MHz :   967.808686   657.673530   574.864457 

 Dipole components along the rotational axes: 
x,y,z [a.u.] :    -2.106598    -0.851567     3.485785 
x,y,z [Debye]:    -5.354546    -2.164511     8.860161 

 

Timings for individual modules:

Sum of individual times         ...       70.354 sec (=   1.173 min)
GTO integral calculation        ...        2.128 sec (=   0.035 min)   3.0 %
SCF iterations                  ...       68.226 sec (=   1.137 min)  97.0 %
                             ****ORCA TERMINATED NORMALLY****
TOTAL RUN TIME: 0 days 0 hours 1 minutes 12 seconds 204 msec
