
                                 *****************
                                 * O   R   C   A *
                                 *****************

                                            #,                                       
                                            ###                                      
                                            ####                                     
                                            #####                                    
                                            ######                                   
                                           ########,                                 
                                     ,,################,,,,,                         
                               ,,#################################,,                 
                          ,,##########################################,,             
                       ,#########################################, ''#####,          
                    ,#############################################,,   '####,        
                  ,##################################################,,,,####,       
                ,###########''''           ''''###############################       
              ,#####''   ,,,,##########,,,,          '''####'''          '####       
            ,##' ,,,,###########################,,,                        '##       
           ' ,,###''''                  '''############,,,                           
         ,,##''                                '''############,,,,        ,,,,,,###''
      ,#''                                            '''#######################'''  
     '                                                          ''''####''''         
             ,#######,   #######,   ,#######,      ##                                
            ,#'     '#,  ##    ##  ,#'     '#,    #''#        ######   ,####,        
            ##       ##  ##   ,#'  ##            #'  '#       #        #'  '#        
            ##       ##  #######   ##           ,######,      #####,   #    #        
            '#,     ,#'  ##    ##  '#,     ,#' ,#      #,         ##   #,  ,#        
             '#######'   ##     ##  '#######'  #'      '#     #####' # '####'        



                  #######################################################
                  #                        -***-                        #
                  #          Department of theory and spectroscopy      #
                  #    Directorship and core code : Frank Neese         #
                  #        Max Planck Institute fuer Kohlenforschung    #
                  #                Kaiser Wilhelm Platz 1               #
                  #                 D-45470 Muelheim/Ruhr               #
                  #                      Germany                        #
                  #                                                     #
                  #                  All rights reserved                #
                  #                        -***-                        #
                  #######################################################


                         Program Version 5.0.4 -  RELEASE  -


 With contributions from (in alphabetic order):
   Daniel Aravena         : Magnetic Suceptibility
   Michael Atanasov       : Ab Initio Ligand Field Theory (pilot matlab implementation)
   Alexander A. Auer      : GIAO ZORA, VPT2 properties, NMR spectrum
   Ute Becker             : Parallelization
   Giovanni Bistoni       : ED, misc. LED, open-shell LED, HFLD
   Martin Brehm           : Molecular dynamics
   Dmytro Bykov           : SCF Hessian
   Vijay G. Chilkuri      : MRCI spin determinant printing, contributions to CSF-ICE
   Dipayan Datta          : RHF DLPNO-CCSD density
   Achintya Kumar Dutta   : EOM-CC, STEOM-CC
   Dmitry Ganyushin       : Spin-Orbit,Spin-Spin,Magnetic field MRCI
   Miquel Garcia          : C-PCM and meta-GGA Hessian, CC/C-PCM, Gaussian charge scheme
   Yang Guo               : DLPNO-NEVPT2, F12-NEVPT2, CIM, IAO-localization
   Andreas Hansen         : Spin unrestricted coupled pair/coupled cluster methods
   Benjamin Helmich-Paris : MC-RPA, TRAH-SCF, COSX integrals
   Lee Huntington         : MR-EOM, pCC
   Robert Izsak           : Overlap fitted RIJCOSX, COSX-SCS-MP3, EOM
   Marcus Kettner         : VPT2
   Christian Kollmar      : KDIIS, OOCD, Brueckner-CCSD(T), CCSD density, CASPT2, CASPT2-K
   Simone Kossmann        : Meta GGA functionals, TD-DFT gradient, OOMP2, MP2 Hessian
   Martin Krupicka        : Initial AUTO-CI
   Lucas Lang             : DCDCAS
   Marvin Lechner         : AUTO-CI (C++ implementation), FIC-MRCC
   Dagmar Lenk            : GEPOL surface, SMD
   Dimitrios Liakos       : Extrapolation schemes; Compound Job, initial MDCI parallelization
   Dimitrios Manganas     : Further ROCIS development; embedding schemes
   Dimitrios Pantazis     : SARC Basis sets
   Anastasios Papadopoulos: AUTO-CI, single reference methods and gradients
   Taras Petrenko         : DFT Hessian,TD-DFT gradient, ASA, ECA, R-Raman, ABS, FL, XAS/XES, NRVS
   Peter Pinski           : DLPNO-MP2, DLPNO-MP2 Gradient
   Christoph Reimann      : Effective Core Potentials
   Marius Retegan         : Local ZFS, SOC
   Christoph Riplinger    : Optimizer, TS searches, QM/MM, DLPNO-CCSD(T), (RO)-DLPNO pert. Triples
   Tobias Risthaus        : Range-separated hybrids, TD-DFT gradient, RPA, STAB
   Michael Roemelt        : Original ROCIS implementation
   Masaaki Saitow         : Open-shell DLPNO-CCSD energy and density
   Barbara Sandhoefer     : DKH picture change effects
   Avijit Sen             : IP-ROCIS
   Kantharuban Sivalingam : CASSCF convergence, NEVPT2, FIC-MRCI
   Bernardo de Souza      : ESD, SOC TD-DFT
   Georgi Stoychev        : AutoAux, RI-MP2 NMR, DLPNO-MP2 response
   Willem Van den Heuvel  : Paramagnetic NMR
   Boris Wezisla          : Elementary symmetry handling
   Frank Wennmohs         : Technical directorship


 We gratefully acknowledge several colleagues who have allowed us to
 interface, adapt or use parts of their codes:
   Stefan Grimme, W. Hujo, H. Kruse, P. Pracht,  : VdW corrections, initial TS optimization,
                  C. Bannwarth, S. Ehlert          DFT functionals, gCP, sTDA/sTD-DF
   Ed Valeev, F. Pavosevic, A. Kumar             : LibInt (2-el integral package), F12 methods
   Garnet Chan, S. Sharma, J. Yang, R. Olivares  : DMRG
   Ulf Ekstrom                                   : XCFun DFT Library
   Mihaly Kallay                                 : mrcc  (arbitrary order and MRCC methods)
   Jiri Pittner, Ondrej Demel                    : Mk-CCSD
   Frank Weinhold                                : gennbo (NPA and NBO analysis)
   Christopher J. Cramer and Donald G. Truhlar   : smd solvation model
   Lars Goerigk                                  : TD-DFT with DH, B97 family of functionals
   V. Asgeirsson, H. Jonsson                     : NEB implementation
   FAccTs GmbH                                   : IRC, NEB, NEB-TS, DLPNO-Multilevel, CI-OPT
                                                   MM, QMMM, 2- and 3-layer-ONIOM, Crystal-QMMM,
                                                   LR-CPCM, SF, NACMEs, symmetry and pop. for TD-DFT,
                                                   nearIR, NL-DFT gradient (VV10), updates on ESD,
                                                   ML-optimized integration grids
   S Lehtola, MJT Oliveira, MAL Marques          : LibXC Library
   Liviu Ungur et al                             : ANISO software


 Your calculation uses the libint2 library for the computation of 2-el integrals
 For citations please refer to: http://libint.valeyev.net

 Your ORCA version has been built with support for libXC version: 5.1.0
 For citations please refer to: https://tddft.org/programs/libxc/

 This ORCA versions uses:
   CBLAS   interface :  Fast vector & matrix operations
   LAPACKE interface :  Fast linear algebra routines
   SCALAPACK package :  Parallel linear algebra routines
   Shared memory     :  Shared parallel matrices
   BLAS/LAPACK       :  OpenBLAS 0.3.15  USE64BITINT DYNAMIC_ARCH NO_AFFINITY Zen SINGLE_THREADED
        Core in use  :  Zen
   Copyright (c) 2011-2014, The OpenBLAS Project


Your calculation utilizes the DFT-NL dispersion correction.
Cite in your paper:
Vydrov, O. A.; Van Voorhis, T. J. Chem. Phys. 2010, 133, 244103
Hujo, W.; Grimme, S. J. Chem. Theory Comput. 2011, 7, 3866 
   

Your calculation utilizes the SMD solvation module
Please cite in your paper:
A.V. Marenich, C.J. Cramer, D.G. Truhlar J. Phys. Chem. B, 113, (2009), 6378 

================================================================================

----- Orbital basis set information -----
Your calculation utilizes the basis: def2-TZVPP
   F. Weigend and R. Ahlrichs, Phys. Chem. Chem. Phys. 7, 3297 (2005).

----- AuxJ basis set information -----
Your calculation utilizes the auxiliary basis: def2/J
   F. Weigend, Phys. Chem. Chem. Phys. 8, 1057 (2006).

================================================================================
                                        WARNINGS
                       Please study these warnings very carefully!
================================================================================

Using LibXC functional ID 531 : wB97M-V exchange-correlation functional
[ 1]  N. Mardirossian and M. Head-Gordon, J. Chem. Phys. 144, 214110 (2016)
Using LibXC functional ID 531 : wB97M-V exchange-correlation functional
[ 1]  N. Mardirossian and M. Head-Gordon, J. Chem. Phys. 144, 214110 (2016)

WARNING: B97M-V or wB97M-V functional requested.
  ===> : libXC variant has now been activated.
         Any manually given DFX/HFX/RangeSep scaling parameters are IGNORED!

Your calculation utilizes LibXC
 by S Lehtola, C Steigemann, MJT Oliveira & MAL Marques
Please cite in your paper:
 S Lehtola, C Steigemann, MJT Oliveira & MAL Marques, SoftwareX, 7, (2018), 1.
   


INFO   : the flag for use of the SHARK integral package has been found!

================================================================================
                                       INPUT FILE
================================================================================
NAME = orca_input.inp
|  1> ! WB97M-V def2-TZVPP def2/J RIJCOSX tightSCF noautostart miniprint nopop
|  2> %maxcore 4000
|  3> %pal nprocs 16 end
|  4> 
|  5>  %cpcm
|  6>     smd true
|  7>     SMDsolvent "Acetone"
|  8>  end
|  9>  
| 10>  * xyz 0 1
| 11> O            2.74130961968247       -0.45931935982674       -1.59512697680707
| 12> C            1.94722621127750       -0.50552819245310       -0.65798440804322
| 13> C            0.74248694683555       -1.31314409501258       -0.63758548876607
| 14> C           -0.15658589398771       -1.18985789357542        0.37491522656591
| 15> C           -1.48829208694810       -1.88025123696651        0.39555999519546
| 16> C           -2.54696975563397       -1.08368282169561       -0.38276823399032
| 17> C           -2.56165191159516        0.39281558925444        0.03099455588039
| 18> C           -1.30815839174095        1.04985190206148       -0.51563584597259
| 19> O           -1.10486272834757        1.10517780261809       -1.71213059889538
| 20> C           -0.33693192555364        1.56921818129023        0.46894867843241
| 21> C            0.90235580340654        1.99628696586720        0.01596221579725
| 22> C            2.14593012294073        0.27339837991039        0.56591221029488
| 23> O            1.43304598322075        0.04302205572455        1.66693432192541
| 24> C            0.17498537217038       -0.32427293704094        1.46238599052320
| 25> H            0.58348166616635       -1.99278181883032       -1.46011227118672
| 26> H           -1.39252079637002       -2.86845584766510       -0.05546984010476
| 27> H           -1.81861106281462       -1.99970078580674        1.42870489737497
| 28> H           -3.52547285060341       -1.53123158677156       -0.20642678944883
| 29> H           -2.33200972357567       -1.13415419385110       -1.45153823493481
| 30> H           -2.63079462554103        0.49410180941103        1.11276948182183
| 31> H           -3.42439382690551        0.87674337613076       -0.43089854618858
| 32> H           -0.72412549843693        1.91607759204868        1.41555338165537
| 33> H            1.10626025169699        1.95583271520189       -1.04147125583905
| 34> H            1.49774547013197        2.67324533394922        0.60455559168522
| 35> H            3.13281661272962        0.67049510799378        0.76484858640928
| 36> H           -0.40028998220611       -0.35430304196588        2.37832135661697
| 37> 
| 38>  *
| 39> 
| 40>                          ****END OF INPUT****
================================================================================

                       ****************************
                       * Single Point Calculation *
                       ****************************

---------------------------------
CARTESIAN COORDINATES (ANGSTROEM)
---------------------------------
  O      2.741310   -0.459319   -1.595127
  C      1.947226   -0.505528   -0.657984
  C      0.742487   -1.313144   -0.637585
  C     -0.156586   -1.189858    0.374915
  C     -1.488292   -1.880251    0.395560
  C     -2.546970   -1.083683   -0.382768
  C     -2.561652    0.392816    0.030995
  C     -1.308158    1.049852   -0.515636
  O     -1.104863    1.105178   -1.712131
  C     -0.336932    1.569218    0.468949
  C      0.902356    1.996287    0.015962
  C      2.145930    0.273398    0.565912
  O      1.433046    0.043022    1.666934
  C      0.174985   -0.324273    1.462386
  H      0.583482   -1.992782   -1.460112
  H     -1.392521   -2.868456   -0.055470
  H     -1.818611   -1.999701    1.428705
  H     -3.525473   -1.531232   -0.206427
  H     -2.332010   -1.134154   -1.451538
  H     -2.630795    0.494102    1.112769
  H     -3.424394    0.876743   -0.430899
  H     -0.724125    1.916078    1.415553
  H      1.106260    1.955833   -1.041471
  H      1.497745    2.673245    0.604556
  H      3.132817    0.670495    0.764849
  H     -0.400290   -0.354303    2.378321

----------------------------
CARTESIAN COORDINATES (A.U.)
----------------------------
  NO LB      ZA    FRAG     MASS         X           Y           Z
   0 O     8.0000    0    15.999    5.180324   -0.867988   -3.014353
   1 C     6.0000    0    12.011    3.679724   -0.955310   -1.243410
   2 C     6.0000    0    12.011    1.403097   -2.481483   -1.204862
   3 C     6.0000    0    12.011   -0.295904   -2.248506    0.708487
   4 C     6.0000    0    12.011   -2.812464   -3.553160    0.747500
   5 C     6.0000    0    12.011   -4.813075   -2.047864   -0.723327
   6 C     6.0000    0    12.011   -4.840821    0.742314    0.058571
   7 C     6.0000    0    12.011   -2.472061    1.983933   -0.974411
   8 O     8.0000    0    15.999   -2.087888    2.088483   -3.235458
   9 C     6.0000    0    12.011   -0.636709    2.965393    0.886185
  10 C     6.0000    0    12.011    1.705205    3.772436    0.030164
  11 C     6.0000    0    12.011    4.055220    0.516648    1.069419
  12 O     8.0000    0    15.999    2.708064    0.081300    3.150049
  13 C     6.0000    0    12.011    0.330674   -0.612787    2.763509
  14 H     1.0000    0     1.008    1.102621   -3.765812   -2.759212
  15 H     1.0000    0     1.008   -2.631483   -5.420596   -0.104823
  16 H     1.0000    0     1.008   -3.436677   -3.778887    2.699861
  17 H     1.0000    0     1.008   -6.662178   -2.893608   -0.390090
  18 H     1.0000    0     1.008   -4.406860   -2.143241   -2.743010
  19 H     1.0000    0     1.008   -4.971481    0.933717    2.102830
  20 H     1.0000    0     1.008   -6.471167    1.656805   -0.814280
  21 H     1.0000    0     1.008   -1.368399    3.620862    2.675008
  22 H     1.0000    0     1.008    2.090529    3.695988   -1.968095
  23 H     1.0000    0     1.008    2.830329    5.051702    1.142445
  24 H     1.0000    0     1.008    5.920165    1.267052    1.445354
  25 H     1.0000    0     1.008   -0.756438   -0.669536    4.494376



           ************************************************************
           *        Program running with 16 parallel MPI-processes    *
           *              working on a common directory               *
           ************************************************************
------------------------------------------------------------------------------
                   ___                                                        
                  /   \      - P O W E R E D   B Y -                         
                 /     \                                                     
                 |  |  |   _    _      __       _____    __    __             
                 |  |  |  | |  | |    /  \     |  _  \  |  |  /  |          
                  \  \/   | |  | |   /    \    | | | |  |  | /  /          
                 / \  \   | |__| |  /  /\  \   | |_| |  |  |/  /          
                |  |  |   |  __  | /  /__\  \  |    /   |      \           
                |  |  |   | |  | | |   __   |  |    \   |  |\   \          
                \     /   | |  | | |  |  |  |  | |\  \  |  | \   \       
                 \___/    |_|  |_| |__|  |__|  |_| \__\ |__|  \__/        
                                                                              
                      - O R C A' S   B I G   F R I E N D -                    
                                      &                                       
                       - I N T E G R A L  F E E D E R -                       
                                                                              
 v1 FN, 2020, v2 2021                                                         
------------------------------------------------------------------------------


Reading SHARK input file orca_input.SHARKINP.tmp ... ok
----------------------
SHARK INTEGRAL PACKAGE
----------------------

Number of atoms                             ...     26
Number of basis functions                   ...    602
Number of shells                            ...    226
Maximum angular momentum                    ...      3
Integral batch strategy                     ... SHARK/LIBINT Hybrid
RI-J (if used) integral strategy            ... SPLIT-RIJ (Revised 2003 algorithm where possible)
Printlevel                                  ...      1
Contraction scheme used                     ... SEGMENTED contraction
Coulomb Range Separation                    ... NOT USED
Exchange Range Separation                   ... Long Range
   Mu parameter                             ...  0.300000
   Scaling (regular/separated)              ...  0.150000  0.850000
Finite Nucleus Model                        ... NOT USED
Auxiliary Coulomb fitting basis             ... AVAILABLE
   # of basis functions in Aux-J            ...    818
   # of shells in Aux-J                     ...    270
   Maximum angular momentum in Aux-J        ...      4
Auxiliary J/K fitting basis                 ... NOT available
Auxiliary Correlation fitting basis         ... NOT available
Auxiliary 'external' fitting basis          ... NOT available
Integral threshold                          ...     2.500000e-11
Primitive cut-off                           ...     2.500000e-12
Primitive pair pre-selection threshold      ...     2.500000e-12

Calculating pre-screening integrals         ... done (  0.0 sec) Dimension = 226
Organizing shell pair data                  ... done (  0.2 sec)
Shell pair information
Total number of shell pairs                 ...     25651
Shell pairs after pre-screening             ...     22234
Total number of primitive shell pairs       ...     71220
Primitive shell pairs kept                  ...     45104
          la=0 lb=0:   4761 shell pairs
          la=1 lb=0:   6168 shell pairs
          la=1 lb=1:   2027 shell pairs
          la=2 lb=0:   3534 shell pairs
          la=2 lb=1:   2332 shell pairs
          la=2 lb=2:    686 shell pairs
          la=3 lb=0:   1289 shell pairs
          la=3 lb=1:    844 shell pairs
          la=3 lb=2:    494 shell pairs
          la=3 lb=3:     99 shell pairs

Calculating one electron integrals          ... done (  0.0 sec)
Calculating RI/J V-Matrix + Cholesky decomp.... done (  0.0 sec)
Calculating Nuclear repulsion               ... done (  0.0 sec) ENN=    943.813770877533 Eh

SHARK setup successfully completed in   0.5 seconds

Maximum memory used throughout the entire GTOINT-calculation: 35.1 MB


           ************************************************************
           *        Program running with 16 parallel MPI-processes    *
           *              working on a common directory               *
           ************************************************************

Diagonalization of the overlap matrix:
Smallest eigenvalue                        ... 2.096e-05
Time for diagonalization                   ...    0.034 sec
Threshold for overlap eigenvalues          ... 1.000e-08
Number of eigenvalues below threshold      ... 0
Time for construction of square roots      ...    0.041 sec
Total time needed                          ...    0.076 sec

Time for model grid setup =    0.086 sec

Loading Hartree-Fock densities                     ... done
Calculating cut-offs                               ... done
Initializing the effective Hamiltonian             ... done
Setting up the integral package (SHARK)            ... done
Starting the Coulomb interaction                   ... done (   0.1 sec)
Reading the grid                                   ... done
Mapping shells                                     ... done
Starting the XC term evaluation                    ... done (   0.1 sec)
  promolecular density results
     # of electrons  =    101.999838031
     EX              =    -84.278071015
     EC              =     -3.440695213
     EX+EC           =    -87.718766228
Transforming the Hamiltonian                       ... done (   0.0 sec)
Diagonalizing the Hamiltonian                      ... done (   0.0 sec)
Back transforming the eigenvectors                 ... done (   0.0 sec)
Now organizing SCF variables                       ... done
-------------------
DFT GRID GENERATION
-------------------

General Integration Accuracy     IntAcc      ... 4.388
Radial Grid Type                 RadialGrid  ... OptM3 with GC (2021)
Angular Grid (max. ang.)         AngularGrid ... 4 (Lebedev-302)
Angular grid pruning method      GridPruning ... 4 (adaptive)
Weight generation scheme         WeightScheme... Becke
Basis function cutoff            BFCut       ... 1.0000e-11
Integration weight cutoff        WCut        ... 1.0000e-14
Angular grids for H and He will be reduced by one unit
Partially contracted basis set               ... off
Rotationally invariant grid construction     ... off

Total number of grid points                  ...   121589
Total number of batches                      ...     1911
Average number of points per batch           ...       63
Average number of grid points per atom       ...     4676
Time for grid setup =    0.449 sec

--------------------
COSX GRID GENERATION
--------------------

GRIDX 1
-------
General Integration Accuracy     IntAcc      ... 3.816
Radial Grid Type                 RadialGrid  ... OptM3 with GC (2021)
Angular Grid (max. ang.)         AngularGrid ... 1 (Lebedev-50)
Angular grid pruning method      GridPruning ... 4 (adaptive)
Weight generation scheme         WeightScheme... Becke
Basis function cutoff            BFCut       ... 1.0000e-11
Integration weight cutoff        WCut        ... 1.0000e-14
Angular grids for H and He will be reduced by one unit
Partially contracted basis set               ... on
Rotationally invariant grid construction     ... off

Total number of grid points                  ...    15449
Total number of batches                      ...      258
Average number of points per batch           ...       59
Average number of grid points per atom       ...      594
UseSFitting                                  ... on

GRIDX 2
-------
General Integration Accuracy     IntAcc      ... 4.020
Radial Grid Type                 RadialGrid  ... OptM3 with GC (2021)
Angular Grid (max. ang.)         AngularGrid ... 2 (Lebedev-110)
Angular grid pruning method      GridPruning ... 4 (adaptive)
Weight generation scheme         WeightScheme... Becke
Basis function cutoff            BFCut       ... 1.0000e-11
Integration weight cutoff        WCut        ... 1.0000e-14
Angular grids for H and He will be reduced by one unit
Partially contracted basis set               ... on
Rotationally invariant grid construction     ... off

Total number of grid points                  ...    33411
Total number of batches                      ...      536
Average number of points per batch           ...       62
Average number of grid points per atom       ...     1285
UseSFitting                                  ... on

GRIDX 3
-------
General Integration Accuracy     IntAcc      ... 4.338
Radial Grid Type                 RadialGrid  ... OptM3 with GC (2021)
Angular Grid (max. ang.)         AngularGrid ... 3 (Lebedev-194)
Angular grid pruning method      GridPruning ... 4 (adaptive)
Weight generation scheme         WeightScheme... Becke
Basis function cutoff            BFCut       ... 1.0000e-11
Integration weight cutoff        WCut        ... 1.0000e-14
Angular grids for H and He will be reduced by one unit
Partially contracted basis set               ... on
Rotationally invariant grid construction     ... off

Total number of grid points                  ...    73165
Total number of batches                      ...     1154
Average number of points per batch           ...       63
Average number of grid points per atom       ...     2814
UseSFitting                                  ... on

Time for X-Grid setup             =    0.620 sec


--------------------
CPCM SOLVATION MODEL
--------------------
CPCM parameters:
  Epsilon                                         ...      20.4930
  Refrac                                          ...       1.3588
  Rsolv                                           ...       1.3000
  Surface type                                    ... GAUSSIAN VDW
  Epsilon function type                           ...         CPCM
Solvent:                                     ... ACETONE
SMD-CDS solvent descriptors:
  Soln                                       ...    1.3588
  Soln25                                     ...    1.3559
  Sola                                       ...    0.0400
  Solb                                       ...    0.4900
  Solg                                       ...   33.7700
  Solc                                       ...    0.0000
  Solh                                       ...    0.0000
Radii:
 Radius for O  used is    4.1990 Bohr (=   2.2220 Ang.)
 Radius for C  used is    3.4960 Bohr (=   1.8500 Ang.)
 Radius for H  used is    2.2677 Bohr (=   1.2000 Ang.)
Calculating surface                               ...        done! (  0.0s)
GEPOL surface points                              ...         1341
GEPOL Volume                                      ...    1556.6188
GEPOL Surface-area                                ...     795.5372
Calculating surface distance matrix               ...        done! (  0.0s)
Performing Cholesky decomposition & store         ...        done! (  0.1s)
Overall time for CPCM initialization              ...                 0.1s
--------------
SCF ITERATIONS
--------------
ITER       Energy         Delta-E        Max-DP      RMS-DP      [F,P]     Damp
               ***  Starting incremental Fock matrix formation  ***
  0   -652.0142833156   0.000000000000 0.32196128  0.00155864  0.3029837 0.7000
  1   -652.1672682733  -0.152984957784 0.31708843  0.00145334  0.1465039 0.7000
                               ***Turning on DIIS***
  2   -652.2406296280  -0.073361354640 0.53119906  0.00265670  0.0531089 0.0000
  3   -652.3652880007  -0.124658372687 0.23393561  0.00097070  0.0706489 0.0000
  4   -652.3827790787  -0.017491078008 0.01620773  0.00013908  0.0124198 0.0000
  5   -652.3835207129  -0.000741634187 0.01593669  0.00008488  0.0063689 0.0000
                      *** Initiating the SOSCF procedure ***
                           *** Shutting down DIIS ***
                      *** Re-Reading the Fockian *** 
                      *** Removing any level shift *** 
ITER      Energy       Delta-E        Grad      Rot      Max-DP    RMS-DP
  6   -652.38369554  -0.0001748258  0.001554  0.001554  0.011556  0.000076
               *** Restarting incremental Fock matrix formation ***
  7   -652.38375619  -0.0000606549  0.000600  0.001646  0.009061  0.000040
  8   -652.38376450  -0.0000083079  0.000326  0.002147  0.006533  0.000032
  9   -652.38376792  -0.0000034190  0.000102  0.000351  0.001418  0.000013
 10   -652.38376845  -0.0000005325  0.000023  0.000100  0.000524  0.000004
 11   -652.38376855  -0.0000000968  0.000025  0.000067  0.000317  0.000002
 12   -652.38376857  -0.0000000200  0.000007  0.000033  0.000116  0.000001
 13   -652.38376857  -0.0000000034  0.000003  0.000011  0.000089  0.000001
                  ***Gradient check signals convergence***
              ***Rediagonalizing the Fockian in SOSCF/NRSCF***

               *****************************************************
               *                     SUCCESS                       *
               *           SCF CONVERGED AFTER  14 CYCLES          *
               *****************************************************

Old exchange energy                            =    -26.495706118 Eh
New exchange energy                            =    -26.495720373 Eh
Exchange energy change after final integration =     -0.000014255 Eh
Total energy after final integration           =   -652.383782835 Eh
Final COS-X integration done in                =     7.499 sec

------------------
NL GRID GENERATION
------------------

General Integration Accuracy     IntAcc      ... 4.004
Radial Grid Type                 RadialGrid  ... OptM3 with GC (2021)
Angular Grid (max. ang.)         AngularGrid ... 2 (Lebedev-110)
Angular grid pruning method      GridPruning ... 4 (adaptive)
Weight generation scheme         WeightScheme... Becke
Basis function cutoff            BFCut       ... 1.0000e-10
Integration weight cutoff        WCut        ... 1.0000e-14
Angular grids for H and He will be reduced by one unit
Partially contracted basis set               ... off
Rotationally invariant grid construction     ... off

Total number of grid points                  ...    38450
Total number of batches                      ...      613
Average number of points per batch           ...       62
Average number of grid points per atom       ...     1479
Final grid set up in    0.1 sec

-------------------------------------------------------------------------------
                    post-SCF DFT-NL dispersion correction                      
-------------------------------------------------------------------------------

SCF Energy:   -652.383782835 
NL    Energy:  0.376728299 
SC+NL Energy: -652.007054536 
NL done in:    0.4 sec
-------------------------------------------------------------------------------

SMD CDS free energy correction energy :                -4.20597     Kcal/mol
Total Energy after SMD CDS correction =              -652.013757169 Eh
Total Energy       :         -652.01375717 Eh          -17742.19633 eV
  Last Energy change         ...   -7.2845e-09  Tolerance :   1.0000e-08
  Last MAX-Density change    ...    1.9984e-15  Tolerance :   1.0000e-07
             **** THE GBW FILE WAS UPDATED (orca_input.gbw) ****
             **** DENSITY orca_input.scfp WAS UPDATED ****
             **** ENERGY FILE WAS UPDATED (orca_input.en.tmp) ****
             **** THE GBW FILE WAS UPDATED (orca_input.gbw) ****
             **** DENSITY orca_input.scfp WAS UPDATED ****
----------------
ORBITAL ENERGIES
----------------

  NO   OCC          E(Eh)            E(eV) 
   0   2.0000     -19.421580      -528.4881 
   1   2.0000     -19.315429      -525.5995 
   2   2.0000     -19.289552      -524.8954 
   3   2.0000     -10.434152      -283.9277 
   4   2.0000     -10.429060      -283.7892 
   5   2.0000     -10.424454      -283.6638 
   6   2.0000     -10.423064      -283.6260 
   7   2.0000     -10.381656      -282.4992 
   8   2.0000     -10.353822      -281.7418 
   9   2.0000     -10.353067      -281.7213 
  10   2.0000     -10.350893      -281.6621 
  11   2.0000     -10.348594      -281.5996 
  12   2.0000     -10.344066      -281.4763 
  13   2.0000     -10.339358      -281.3482 
  14   2.0000      -1.273244       -34.6467 
  15   2.0000      -1.169798       -31.8318 
  16   2.0000      -1.144402       -31.1408 
  17   2.0000      -0.977407       -26.5966 
  18   2.0000      -0.914313       -24.8797 
  19   2.0000      -0.908408       -24.7190 
  20   2.0000      -0.898774       -24.4569 
  21   2.0000      -0.837845       -22.7989 
  22   2.0000      -0.777961       -21.1694 
  23   2.0000      -0.770042       -20.9539 
  24   2.0000      -0.728213       -19.8157 
  25   2.0000      -0.696480       -18.9522 
  26   2.0000      -0.658012       -17.9054 
  27   2.0000      -0.647477       -17.6187 
  28   2.0000      -0.630552       -17.1582 
  29   2.0000      -0.619112       -16.8469 
  30   2.0000      -0.597772       -16.2662 
  31   2.0000      -0.580632       -15.7998 
  32   2.0000      -0.561385       -15.2761 
  33   2.0000      -0.553475       -15.0608 
  34   2.0000      -0.547866       -14.9082 
  35   2.0000      -0.536720       -14.6049 
  36   2.0000      -0.526997       -14.3403 
  37   2.0000      -0.507495       -13.8097 
  38   2.0000      -0.502846       -13.6831 
  39   2.0000      -0.491627       -13.3778 
  40   2.0000      -0.488945       -13.3049 
  41   2.0000      -0.472002       -12.8438 
  42   2.0000      -0.462647       -12.5893 
  43   2.0000      -0.451927       -12.2976 
  44   2.0000      -0.444368       -12.0919 
  45   2.0000      -0.433706       -11.8017 
  46   2.0000      -0.384181       -10.4541 
  47   2.0000      -0.364262        -9.9121 
  48   2.0000      -0.353206        -9.6112 
  49   2.0000      -0.340621        -9.2688 
  50   2.0000      -0.310514        -8.4495 
  51   0.0000       0.016737         0.4554 
  52   0.0000       0.041565         1.1310 
  53   0.0000       0.053996         1.4693 
  54   0.0000       0.105299         2.8653 
  55   0.0000       0.122353         3.3294 
  56   0.0000       0.130823         3.5599 
  57   0.0000       0.141377         3.8471 
  58   0.0000       0.149563         4.0698 
  59   0.0000       0.155259         4.2248 
  60   0.0000       0.163474         4.4484 
  61   0.0000       0.167485         4.5575 
  62   0.0000       0.172021         4.6809 
  63   0.0000       0.183315         4.9883 
  64   0.0000       0.189209         5.1486 
  65   0.0000       0.197912         5.3855 
  66   0.0000       0.204047         5.5524 
  67   0.0000       0.208731         5.6799 
  68   0.0000       0.221908         6.0384 
  69   0.0000       0.225259         6.1296 
  70   0.0000       0.236584         6.4378 
  71   0.0000       0.245178         6.6716 
  72   0.0000       0.256277         6.9736 
  73   0.0000       0.260664         7.0930 
  74   0.0000       0.262434         7.1412 
  75   0.0000       0.284172         7.7327 
  76   0.0000       0.295002         8.0274 
  77   0.0000       0.299855         8.1595 
  78   0.0000       0.307476         8.3668 
  79   0.0000       0.317797         8.6477 
  80   0.0000       0.325469         8.8565 
  81   0.0000       0.327211         8.9039 
  82   0.0000       0.333436         9.0732 
  83   0.0000       0.339149         9.2287 
  84   0.0000       0.343768         9.3544 
  85   0.0000       0.351534         9.5657 
  86   0.0000       0.365688         9.9509 
  87   0.0000       0.373741        10.1700 
  88   0.0000       0.375562        10.2196 
  89   0.0000       0.389499        10.5988 
  90   0.0000       0.393337        10.7033 
  91   0.0000       0.407862        11.0985 
  92   0.0000       0.417233        11.3535 
  93   0.0000       0.423405        11.5214 
  94   0.0000       0.424755        11.5582 
  95   0.0000       0.427358        11.6290 
  96   0.0000       0.440430        11.9847 
  97   0.0000       0.451479        12.2854 
  98   0.0000       0.454879        12.3779 
  99   0.0000       0.461264        12.5516 
 100   0.0000       0.468879        12.7588 
 101   0.0000       0.477161        12.9842 
 102   0.0000       0.481622        13.1056 
 103   0.0000       0.482855        13.1392 
 104   0.0000       0.490766        13.3544 
 105   0.0000       0.499274        13.5859 
 106   0.0000       0.505316        13.7503 
 107   0.0000       0.508353        13.8330 
 108   0.0000       0.514646        14.0042 
 109   0.0000       0.517348        14.0777 
 110   0.0000       0.524818        14.2810 
 111   0.0000       0.525709        14.3053 
 112   0.0000       0.533660        14.5216 
 113   0.0000       0.537310        14.6209 
 114   0.0000       0.538866        14.6633 
 115   0.0000       0.547146        14.8886 
 116   0.0000       0.557208        15.1624 
 117   0.0000       0.561692        15.2844 
 118   0.0000       0.570262        15.5176 
 119   0.0000       0.574773        15.6404 
 120   0.0000       0.589050        16.0289 
 121   0.0000       0.594235        16.1700 
 122   0.0000       0.599322        16.3084 
 123   0.0000       0.607515        16.5313 
 124   0.0000       0.624668        16.9981 
 125   0.0000       0.634294        17.2600 
 126   0.0000       0.639468        17.4008 
 127   0.0000       0.645316        17.5599 
 128   0.0000       0.656875        17.8745 
 129   0.0000       0.676258        18.4019 
 130   0.0000       0.678100        18.4520 
 131   0.0000       0.701025        19.0759 
 132   0.0000       0.713604        19.4181 
 133   0.0000       0.718359        19.5475 
 134   0.0000       0.732591        19.9348 
 135   0.0000       0.739112        20.1123 
 136   0.0000       0.754149        20.5214 
 137   0.0000       0.762363        20.7450 
 138   0.0000       0.767290        20.8790 
 139   0.0000       0.771733        20.9999 
 140   0.0000       0.777849        21.1663 
 141   0.0000       0.789167        21.4743 
 142   0.0000       0.799481        21.7550 
 143   0.0000       0.807640        21.9770 
 144   0.0000       0.826701        22.4957 
 145   0.0000       0.847701        23.0671 
 146   0.0000       0.861027        23.4297 
 147   0.0000       0.869652        23.6644 
 148   0.0000       0.871363        23.7110 
 149   0.0000       0.883862        24.0511 
 150   0.0000       0.888749        24.1841 
 151   0.0000       0.895930        24.3795 
 152   0.0000       0.910451        24.7746 
 153   0.0000       0.918206        24.9857 
 154   0.0000       0.933831        25.4108 
 155   0.0000       0.943315        25.6689 
 156   0.0000       0.951115        25.8812 
 157   0.0000       0.953677        25.9509 
 158   0.0000       0.959513        26.1097 
 159   0.0000       0.973914        26.5015 
 160   0.0000       0.978336        26.6219 
 161   0.0000       0.995065        27.0771 
 162   0.0000       1.003761        27.3137 
 163   0.0000       1.009653        27.4741 
 164   0.0000       1.022539        27.8247 
 165   0.0000       1.030003        28.0278 
 166   0.0000       1.034381        28.1469 
 167   0.0000       1.048571        28.5331 
 168   0.0000       1.061122        28.8746 
 169   0.0000       1.073023        29.1984 
 170   0.0000       1.080449        29.4005 
 171   0.0000       1.089679        29.6517 
 172   0.0000       1.096894        29.8480 
 173   0.0000       1.104010        30.0416 
 174   0.0000       1.128247        30.7012 
 175   0.0000       1.130455        30.7612 
 176   0.0000       1.135724        30.9046 
 177   0.0000       1.142964        31.1016 
 178   0.0000       1.161936        31.6179 
 179   0.0000       1.169625        31.8271 
 180   0.0000       1.179135        32.0859 
 181   0.0000       1.182687        32.1826 
 182   0.0000       1.185616        32.2622 
 183   0.0000       1.188728        32.3469 
 184   0.0000       1.201571        32.6964 
 185   0.0000       1.219360        33.1805 
 186   0.0000       1.225975        33.3605 
 187   0.0000       1.227594        33.4045 
 188   0.0000       1.240265        33.7493 
 189   0.0000       1.246369        33.9154 
 190   0.0000       1.255089        34.1527 
 191   0.0000       1.270612        34.5751 
 192   0.0000       1.286741        35.0140 
 193   0.0000       1.295784        35.2601 
 194   0.0000       1.300167        35.3794 
 195   0.0000       1.306910        35.5628 
 196   0.0000       1.323750        36.0211 
 197   0.0000       1.329594        36.1801 
 198   0.0000       1.341472        36.5033 
 199   0.0000       1.348927        36.7062 
 200   0.0000       1.367791        37.2195 
 201   0.0000       1.377447        37.4822 
 202   0.0000       1.379068        37.5263 
 203   0.0000       1.384809        37.6826 
 204   0.0000       1.400584        38.1118 
 205   0.0000       1.413938        38.4752 
 206   0.0000       1.415566        38.5195 
 207   0.0000       1.422833        38.7172 
 208   0.0000       1.448628        39.4192 
 209   0.0000       1.450568        39.4720 
 210   0.0000       1.461703        39.7750 
 211   0.0000       1.463640        39.8277 
 212   0.0000       1.482009        40.3275 
 213   0.0000       1.487948        40.4891 
 214   0.0000       1.511089        41.1188 
 215   0.0000       1.520683        41.3799 
 216   0.0000       1.530093        41.6360 
 217   0.0000       1.538442        41.8631 
 218   0.0000       1.543158        41.9915 
 219   0.0000       1.550628        42.1947 
 220   0.0000       1.559945        42.4483 
 221   0.0000       1.562981        42.5309 
 222   0.0000       1.579408        42.9779 
 223   0.0000       1.589426        43.2505 
 224   0.0000       1.594069        43.3768 
 225   0.0000       1.597531        43.4710 
 226   0.0000       1.606778        43.7227 
 227   0.0000       1.610229        43.8166 
 228   0.0000       1.623112        44.1671 
 229   0.0000       1.642903        44.7057 
 230   0.0000       1.644158        44.7398 
 231   0.0000       1.662305        45.2336 
 232   0.0000       1.679424        45.6994 
 233   0.0000       1.680300        45.7233 
 234   0.0000       1.689629        45.9771 
 235   0.0000       1.698755        46.2255 
 236   0.0000       1.704624        46.3852 
 237   0.0000       1.718456        46.7616 
 238   0.0000       1.726912        46.9917 
 239   0.0000       1.747550        47.5533 
 240   0.0000       1.767658        48.1004 
 241   0.0000       1.773082        48.2480 
 242   0.0000       1.785115        48.5755 
 243   0.0000       1.786464        48.6122 
 244   0.0000       1.801161        49.0121 
 245   0.0000       1.807156        49.1752 
 246   0.0000       1.828613        49.7591 
 247   0.0000       1.836876        49.9839 
 248   0.0000       1.845455        50.2174 
 249   0.0000       1.852198        50.4009 
 250   0.0000       1.872598        50.9560 
 251   0.0000       1.887479        51.3609 
 252   0.0000       1.900913        51.7265 
 253   0.0000       1.907174        51.8969 
 254   0.0000       1.932833        52.5951 
 255   0.0000       1.949457        53.0474 
 256   0.0000       1.960697        53.3533 
 257   0.0000       1.983678        53.9786 
 258   0.0000       2.021879        55.0181 
 259   0.0000       2.029501        55.2255 
 260   0.0000       2.035827        55.3977 
 261   0.0000       2.047286        55.7095 
 262   0.0000       2.062071        56.1118 
 263   0.0000       2.087156        56.7944 
 264   0.0000       2.110162        57.4204 
 265   0.0000       2.120331        57.6971 
 266   0.0000       2.139799        58.2269 
 267   0.0000       2.164028        58.8862 
 268   0.0000       2.173794        59.1519 
 269   0.0000       2.190510        59.6068 
 270   0.0000       2.209688        60.1287 
 271   0.0000       2.229569        60.6696 
 272   0.0000       2.240260        60.9606 
 273   0.0000       2.265899        61.6582 
 274   0.0000       2.282104        62.0992 
 275   0.0000       2.294441        62.4349 
 276   0.0000       2.302360        62.6504 
 277   0.0000       2.318915        63.1009 
 278   0.0000       2.334090        63.5138 
 279   0.0000       2.341125        63.7053 
 280   0.0000       2.374803        64.6217 
 281   0.0000       2.386671        64.9446 
 282   0.0000       2.402065        65.3635 
 283   0.0000       2.411456        65.6191 
 284   0.0000       2.427268        66.0493 
 285   0.0000       2.447679        66.6047 
 286   0.0000       2.457982        66.8851 
 287   0.0000       2.475653        67.3659 
 288   0.0000       2.482319        67.5473 
 289   0.0000       2.508791        68.2677 
 290   0.0000       2.526896        68.7603 
 291   0.0000       2.541316        69.1527 
 292   0.0000       2.554853        69.5211 
 293   0.0000       2.577242        70.1303 
 294   0.0000       2.584796        70.3359 
 295   0.0000       2.602294        70.8120 
 296   0.0000       2.613170        71.1080 
 297   0.0000       2.623552        71.3905 
 298   0.0000       2.631904        71.6178 
 299   0.0000       2.652932        72.1900 
 300   0.0000       2.668392        72.6106 
 301   0.0000       2.684350        73.0449 
 302   0.0000       2.702578        73.5409 
 303   0.0000       2.713792        73.8460 
 304   0.0000       2.719513        74.0017 
 305   0.0000       2.735559        74.4383 
 306   0.0000       2.746572        74.7380 
 307   0.0000       2.756896        75.0190 
 308   0.0000       2.764996        75.2394 
 309   0.0000       2.783475        75.7422 
 310   0.0000       2.801170        76.2237 
 311   0.0000       2.810087        76.4664 
 312   0.0000       2.822559        76.8057 
 313   0.0000       2.826148        76.9034 
 314   0.0000       2.850744        77.5727 
 315   0.0000       2.858386        77.7806 
 316   0.0000       2.863427        77.9178 
 317   0.0000       2.875436        78.2446 
 318   0.0000       2.885170        78.5095 
 319   0.0000       2.890727        78.6607 
 320   0.0000       2.904379        79.0322 
 321   0.0000       2.906199        79.0817 
 322   0.0000       2.911242        79.2189 
 323   0.0000       2.925917        79.6182 
 324   0.0000       2.945640        80.1549 
 325   0.0000       2.960791        80.5672 
 326   0.0000       2.977776        81.0294 
 327   0.0000       2.981313        81.1256 
 328   0.0000       2.991383        81.3997 
 329   0.0000       3.007658        81.8425 
 330   0.0000       3.019632        82.1684 
 331   0.0000       3.025251        82.3213 
 332   0.0000       3.041893        82.7741 
 333   0.0000       3.049440        82.9795 
 334   0.0000       3.061534        83.3086 
 335   0.0000       3.073550        83.6355 
 336   0.0000       3.078344        83.7660 
 337   0.0000       3.088763        84.0495 
 338   0.0000       3.095315        84.2278 
 339   0.0000       3.111334        84.6637 
 340   0.0000       3.117382        84.8283 
 341   0.0000       3.123596        84.9974 
 342   0.0000       3.132890        85.2503 
 343   0.0000       3.144522        85.5668 
 344   0.0000       3.156164        85.8836 
 345   0.0000       3.161728        86.0350 
 346   0.0000       3.169441        86.2449 
 347   0.0000       3.181491        86.5728 
 348   0.0000       3.198667        87.0401 
 349   0.0000       3.205791        87.2340 
 350   0.0000       3.209873        87.3451 
 351   0.0000       3.216167        87.5164 
 352   0.0000       3.224696        87.7484 
 353   0.0000       3.235365        88.0387 
 354   0.0000       3.243705        88.2657 
 355   0.0000       3.247134        88.3590 
 356   0.0000       3.253850        88.5418 
 357   0.0000       3.271264        89.0156 
 358   0.0000       3.276246        89.1512 
 359   0.0000       3.284630        89.3793 
 360   0.0000       3.298608        89.7597 
 361   0.0000       3.304051        89.9078 
 362   0.0000       3.315429        90.2174 
 363   0.0000       3.325356        90.4875 
 364   0.0000       3.331450        90.6534 
 365   0.0000       3.336779        90.7984 
 366   0.0000       3.357560        91.3639 
 367   0.0000       3.361972        91.4839 
 368   0.0000       3.377216        91.8987 
 369   0.0000       3.387062        92.1666 
 370   0.0000       3.390011        92.2469 
 371   0.0000       3.398820        92.4866 
 372   0.0000       3.409232        92.7699 
 373   0.0000       3.416081        92.9563 
 374   0.0000       3.430322        93.3438 
 375   0.0000       3.439685        93.5986 
 376   0.0000       3.444714        93.7354 
 377   0.0000       3.453680        93.9794 
 378   0.0000       3.461773        94.1996 
 379   0.0000       3.469532        94.4108 
 380   0.0000       3.477265        94.6212 
 381   0.0000       3.485283        94.8394 
 382   0.0000       3.501557        95.2822 
 383   0.0000       3.520441        95.7961 
 384   0.0000       3.530421        96.0676 
 385   0.0000       3.539726        96.3208 
 386   0.0000       3.544500        96.4508 
 387   0.0000       3.547826        96.5413 
 388   0.0000       3.568245        97.0969 
 389   0.0000       3.587348        97.6167 
 390   0.0000       3.597594        97.8955 
 391   0.0000       3.598504        97.9203 
 392   0.0000       3.621971        98.5588 
 393   0.0000       3.624719        98.6336 
 394   0.0000       3.637205        98.9734 
 395   0.0000       3.643470        99.1439 
 396   0.0000       3.649115        99.2975 
 397   0.0000       3.660843        99.6166 
 398   0.0000       3.667705        99.8033 
 399   0.0000       3.675269       100.0092 
 400   0.0000       3.698269       100.6350 
 401   0.0000       3.707867       100.8962 
 402   0.0000       3.712637       101.0260 
 403   0.0000       3.720474       101.2393 
 404   0.0000       3.724753       101.3557 
 405   0.0000       3.740313       101.7791 
 406   0.0000       3.743463       101.8648 
 407   0.0000       3.761837       102.3648 
 408   0.0000       3.777586       102.7933 
 409   0.0000       3.782806       102.9354 
 410   0.0000       3.796704       103.3136 
 411   0.0000       3.805866       103.5629 
 412   0.0000       3.814171       103.7889 
 413   0.0000       3.822363       104.0118 
 414   0.0000       3.840347       104.5012 
 415   0.0000       3.846965       104.6812 
 416   0.0000       3.858338       104.9907 
 417   0.0000       3.867051       105.2278 
 418   0.0000       3.875354       105.4538 
 419   0.0000       3.883903       105.6864 
 420   0.0000       3.896173       106.0203 
 421   0.0000       3.914495       106.5188 
 422   0.0000       3.929539       106.9282 
 423   0.0000       3.938002       107.1585 
 424   0.0000       3.944119       107.3249 
 425   0.0000       3.951621       107.5291 
 426   0.0000       3.957936       107.7009 
 427   0.0000       3.963955       107.8647 
 428   0.0000       3.980803       108.3232 
 429   0.0000       3.983960       108.4091 
 430   0.0000       3.998037       108.7921 
 431   0.0000       4.016376       109.2911 
 432   0.0000       4.018242       109.3419 
 433   0.0000       4.030574       109.6775 
 434   0.0000       4.035105       109.8008 
 435   0.0000       4.050984       110.2329 
 436   0.0000       4.069729       110.7430 
 437   0.0000       4.071505       110.7913 
 438   0.0000       4.082043       111.0780 
 439   0.0000       4.084879       111.1552 
 440   0.0000       4.098187       111.5173 
 441   0.0000       4.114510       111.9615 
 442   0.0000       4.128814       112.3507 
 443   0.0000       4.133013       112.4650 
 444   0.0000       4.151376       112.9647 
 445   0.0000       4.153608       113.0254 
 446   0.0000       4.161289       113.2344 
 447   0.0000       4.182043       113.7992 
 448   0.0000       4.188526       113.9756 
 449   0.0000       4.193781       114.1186 
 450   0.0000       4.205385       114.4344 
 451   0.0000       4.207509       114.4921 
 452   0.0000       4.220578       114.8478 
 453   0.0000       4.233932       115.2111 
 454   0.0000       4.236000       115.2674 
 455   0.0000       4.248701       115.6130 
 456   0.0000       4.252961       115.7289 
 457   0.0000       4.256903       115.8362 
 458   0.0000       4.264894       116.0537 
 459   0.0000       4.280255       116.4717 
 460   0.0000       4.298767       116.9754 
 461   0.0000       4.316590       117.4604 
 462   0.0000       4.322092       117.6101 
 463   0.0000       4.330578       117.8410 
 464   0.0000       4.340622       118.1143 
 465   0.0000       4.352091       118.4264 
 466   0.0000       4.360111       118.6446 
 467   0.0000       4.373745       119.0157 
 468   0.0000       4.385055       119.3234 
 469   0.0000       4.403858       119.8351 
 470   0.0000       4.408546       119.9626 
 471   0.0000       4.422435       120.3406 
 472   0.0000       4.442919       120.8980 
 473   0.0000       4.455415       121.2380 
 474   0.0000       4.459456       121.3480 
 475   0.0000       4.475941       121.7965 
 476   0.0000       4.498903       122.4214 
 477   0.0000       4.512483       122.7909 
 478   0.0000       4.522435       123.0617 
 479   0.0000       4.538759       123.5059 
 480   0.0000       4.561947       124.1369 
 481   0.0000       4.578079       124.5759 
 482   0.0000       4.596209       125.0692 
 483   0.0000       4.601963       125.2258 
 484   0.0000       4.618132       125.6658 
 485   0.0000       4.652463       126.5999 
 486   0.0000       4.654862       126.6652 
 487   0.0000       4.671868       127.1280 
 488   0.0000       4.691929       127.6739 
 489   0.0000       4.722382       128.5025 
 490   0.0000       4.732641       128.7817 
 491   0.0000       4.753246       129.3424 
 492   0.0000       4.766574       129.7051 
 493   0.0000       4.776539       129.9762 
 494   0.0000       4.785675       130.2248 
 495   0.0000       4.800103       130.6175 
 496   0.0000       4.816198       131.0554 
 497   0.0000       4.833812       131.5347 
 498   0.0000       4.856708       132.1577 
 499   0.0000       4.875221       132.6615 
 500   0.0000       4.883519       132.8873 
 501   0.0000       4.904503       133.4583 
 502   0.0000       4.919365       133.8627 
 503   0.0000       4.922935       133.9599 
 504   0.0000       4.934601       134.2773 
 505   0.0000       4.957896       134.9112 
 506   0.0000       4.966244       135.1384 
 507   0.0000       4.980287       135.5205 
 508   0.0000       4.992067       135.8411 
 509   0.0000       5.007130       136.2509 
 510   0.0000       5.013851       136.4338 
 511   0.0000       5.028219       136.8248 
 512   0.0000       5.058182       137.6401 
 513   0.0000       5.069523       137.9487 
 514   0.0000       5.084678       138.3611 
 515   0.0000       5.102328       138.8414 
 516   0.0000       5.129505       139.5809 
 517   0.0000       5.152289       140.2009 
 518   0.0000       5.162587       140.4811 
 519   0.0000       5.176371       140.8562 
 520   0.0000       5.196345       141.3997 
 521   0.0000       5.220198       142.0488 
 522   0.0000       5.236788       142.5002 
 523   0.0000       5.244900       142.7210 
 524   0.0000       5.265866       143.2915 
 525   0.0000       5.277962       143.6206 
 526   0.0000       5.309005       144.4654 
 527   0.0000       5.314891       144.6255 
 528   0.0000       5.327695       144.9739 
 529   0.0000       5.345816       145.4670 
 530   0.0000       5.349684       145.5723 
 531   0.0000       5.368175       146.0755 
 532   0.0000       5.377235       146.3220 
 533   0.0000       5.406386       147.1152 
 534   0.0000       5.423263       147.5745 
 535   0.0000       5.440709       148.0492 
 536   0.0000       5.472167       148.9052 
 537   0.0000       5.475779       149.0035 
 538   0.0000       5.489269       149.3706 
 539   0.0000       5.514285       150.0513 
 540   0.0000       5.548204       150.9743 
 541   0.0000       5.559139       151.2719 
 542   0.0000       5.568950       151.5388 
 543   0.0000       5.584302       151.9566 
 544   0.0000       5.591756       152.1594 
 545   0.0000       5.603530       152.4798 
 546   0.0000       5.613021       152.7381 
 547   0.0000       5.631245       153.2340 
 548   0.0000       5.673653       154.3879 
 549   0.0000       5.682532       154.6296 
 550   0.0000       5.708115       155.3257 
 551   0.0000       5.722759       155.7242 
 552   0.0000       5.730825       155.9437 
 553   0.0000       5.748086       156.4134 
 554   0.0000       5.777324       157.2090 
 555   0.0000       5.804193       157.9401 
 556   0.0000       5.808006       158.0439 
 557   0.0000       5.838847       158.8831 
 558   0.0000       5.871358       159.7678 
 559   0.0000       5.900870       160.5708 
 560   0.0000       5.947933       161.8515 
 561   0.0000       6.098230       165.9413 
 562   0.0000       6.127248       166.7309 
 563   0.0000       6.235558       169.6782 
 564   0.0000       6.260332       170.3523 
 565   0.0000       6.287775       171.0990 
 566   0.0000       6.310534       171.7184 
 567   0.0000       6.536471       177.8664 
 568   0.0000       6.542222       178.0229 
 569   0.0000       6.556254       178.4047 
 570   0.0000       6.580487       179.0642 
 571   0.0000       6.639440       180.6684 
 572   0.0000       6.657540       181.1609 
 573   0.0000       6.741993       183.4589 
 574   0.0000       6.775500       184.3707 
 575   0.0000       6.819883       185.5785 
 576   0.0000       6.839649       186.1163 
 577   0.0000       6.975749       189.8198 
 578   0.0000       6.991402       190.2457 
 579   0.0000       7.000277       190.4872 
 580   0.0000       7.030994       191.3231 
 581   0.0000       7.107879       193.4152 
 582   0.0000       7.228803       196.7057 
 583   0.0000       7.238470       196.9688 
 584   0.0000       7.243493       197.1055 
 585   0.0000       7.261868       197.6055 
 586   0.0000       7.405146       201.5043 
 587   0.0000       7.469672       203.2601 
 588   0.0000      23.247754       632.6036 
 589   0.0000      23.387936       636.4181 
 590   0.0000      23.479831       638.9187 
 591   0.0000      23.569654       641.3629 
 592   0.0000      23.604369       642.3075 
 593   0.0000      23.700571       644.9253 
 594   0.0000      23.730314       645.7347 
 595   0.0000      23.748017       646.2164 
 596   0.0000      23.824661       648.3020 
 597   0.0000      23.941820       651.4900 
 598   0.0000      24.027068       653.8098 
 599   0.0000      44.455956      1209.7081 
 600   0.0000      44.618949      1214.1433 
 601   0.0000      44.833737      1219.9880 
Total SCF time: 0 days 0 hours 1 min 6 sec 

Maximum memory used throughout the entire SCF-calculation: 121.0 MB

-------------------------   --------------------
FINAL SINGLE POINT ENERGY      -652.013757169089
-------------------------   --------------------


                            ***************************************
                            *     ORCA property calculations      *
                            ***************************************

                                    ---------------------
                                    Active property flags
                                    ---------------------
   (+) Dipole Moment


------------------------------------------------------------------------------
                       ORCA ELECTRIC PROPERTIES CALCULATION
------------------------------------------------------------------------------

Dipole Moment Calculation                       ... on
Quadrupole Moment Calculation                   ... off
Polarizability Calculation                      ... off
GBWName                                         ... orca_input.gbw
Electron density                                ... orca_input.scfp
The origin for moment calculation is the CENTER OF MASS  = ( 0.090909, -0.024345 -0.095359)

-------------
DIPOLE MOMENT
-------------
                                X             Y             Z
Electronic contribution:      7.76140       0.68010      -0.29525
Nuclear contribution   :     -9.81247      -1.05833       3.41581
                        -----------------------------------------
Total Dipole Moment    :     -2.05107      -0.37823       3.12056
                        -----------------------------------------
Magnitude (a.u.)       :      3.75338
Magnitude (Debye)      :      9.54033



--------------------
Rotational spectrum 
--------------------
 
Rotational constants in cm-1:     0.037443     0.022446     0.020941 
Rotational constants in MHz :  1122.504732   672.923459   627.803367 

 Dipole components along the rotational axes: 
x,y,z [a.u.] :    -2.035196    -0.827829     3.043109 
x,y,z [Debye]:    -5.173058    -2.104175     7.734968 

 

Timings for individual modules:

Sum of individual times         ...       70.335 sec (=   1.172 min)
GTO integral calculation        ...        2.162 sec (=   0.036 min)   3.1 %
SCF iterations                  ...       68.173 sec (=   1.136 min)  96.9 %
                             ****ORCA TERMINATED NORMALLY****
TOTAL RUN TIME: 0 days 0 hours 1 minutes 12 seconds 196 msec
