 Entering Gaussian System, Link 0=g16
 Initial command:
 /root/g16/l1.exe "/tmp/gaussian_scratch_3344171/Gau-3344176.inp" -scrdir="/tmp/gaussian_scratch_3344171/"
 Entering Link 1 = /root/g16/l1.exe PID=   3344178.
  
 Copyright (c) 1988,1990,1992,1993,1995,1998,2003,2009,2016,
            Gaussian, Inc.  All Rights Reserved.
  
 This is part of the Gaussian(R) 16 program.  It is based on
 the Gaussian(R) 09 system (copyright 2009, Gaussian, Inc.),
 the Gaussian(R) 03 system (copyright 2003, Gaussian, Inc.),
 the Gaussian(R) 98 system (copyright 1998, Gaussian, Inc.),
 the Gaussian(R) 94 system (copyright 1995, Gaussian, Inc.),
 the Gaussian 92(TM) system (copyright 1992, Gaussian, Inc.),
 the Gaussian 90(TM) system (copyright 1990, Gaussian, Inc.),
 the Gaussian 88(TM) system (copyright 1988, Gaussian, Inc.),
 the Gaussian 86(TM) system (copyright 1986, Carnegie Mellon
 University), and the Gaussian 82(TM) system (copyright 1983,
 Carnegie Mellon University). Gaussian is a federally registered
 trademark of Gaussian, Inc.
  
 This software contains proprietary and confidential information,
 including trade secrets, belonging to Gaussian, Inc.
  
 This software is provided under written license and may be
 used, copied, transmitted, or stored only in accord with that
 written license.
  
 The following legend is applicable only to US Government
 contracts under FAR:
  
                    RESTRICTED RIGHTS LEGEND
  
 Use, reproduction and disclosure by the US Government is
 subject to restrictions as set forth in subparagraphs (a)
 and (c) of the Commercial Computer Software - Restricted
 Rights clause in FAR 52.227-19.
  
 Gaussian, Inc.
 340 Quinnipiac St., Bldg. 40, Wallingford CT 06492
  
  
 ---------------------------------------------------------------
 Warning -- This program may not be used in any manner that
 competes with the business of Gaussian, Inc. or will provide
 assistance to any competitor of Gaussian, Inc.  The licensee
 of this program is prohibited from giving any competitor of
 Gaussian, Inc. access to this program.  By using this program,
 the user acknowledges that Gaussian, Inc. is engaged in the
 business of creating and licensing software in the field of
 computational chemistry and represents and warrants to the
 licensee that it is not a competitor of Gaussian, Inc. and that
 it will not use this program in any manner prohibited above.
 ---------------------------------------------------------------
  

 Cite this work as:
 Gaussian 16, Revision A.03,
 M. J. Frisch, G. W. Trucks, H. B. Schlegel, G. E. Scuseria, 
 M. A. Robb, J. R. Cheeseman, G. Scalmani, V. Barone, 
 G. A. Petersson, H. Nakatsuji, X. Li, M. Caricato, A. V. Marenich, 
 J. Bloino, B. G. Janesko, R. Gomperts, B. Mennucci, H. P. Hratchian, 
 J. V. Ortiz, A. F. Izmaylov, J. L. Sonnenberg, D. Williams-Young, 
 F. Ding, F. Lipparini, F. Egidi, J. Goings, B. Peng, A. Petrone, 
 T. Henderson, D. Ranasinghe, V. G. Zakrzewski, J. Gao, N. Rega, 
 G. Zheng, W. Liang, M. Hada, M. Ehara, K. Toyota, R. Fukuda, 
 J. Hasegawa, M. Ishida, T. Nakajima, Y. Honda, O. Kitao, H. Nakai, 
 T. Vreven, K. Throssell, J. A. Montgomery, Jr., J. E. Peralta, 
 F. Ogliaro, M. J. Bearpark, J. J. Heyd, E. N. Brothers, K. N. Kudin, 
 V. N. Staroverov, T. A. Keith, R. Kobayashi, J. Normand, 
 K. Raghavachari, A. P. Rendell, J. C. Burant, S. S. Iyengar, 
 J. Tomasi, M. Cossi, J. M. Millam, M. Klene, C. Adamo, R. Cammi, 
 J. W. Ochterski, R. L. Martin, K. Morokuma, O. Farkas, 
 J. B. Foresman, and D. J. Fox, Gaussian, Inc., Wallingford CT, 2016.
 
 ******************************************
 Gaussian 16:  ES64L-G16RevA.03 25-Dec-2016
                20-Jan-2026 
 ******************************************
 %chk=ts_raw_stretched.chk
 %mem=32GB
 %nprocshared=16
 Will use up to   16 processors via shared memory.
 -------------------------------------
 #p Opt=(TS, CalcFC, NoEigenTest) Freq
 -------------------------------------
 1/5=1,10=4,11=1,18=20,38=1/1,3;
 2/9=110,12=2,17=6,18=5,40=1/2;
 3/11=9,25=1,30=1,71=2,140=1/1,2,3;
 4//1;
 5/5=2,38=5/2;
 8/6=4,10=90,11=11/1;
 11/6=1,8=1,9=11,15=111,16=1/1,2,10;
 10/6=1,13=1/2;
 6/7=2,8=2,9=2,10=2,28=1/1;
 7/10=1,18=20,25=1/1,2,3,16;
 1/5=1,10=4,11=1,18=20/3(2);
 2/9=110/2;
 99//99;
 2/9=110/2;
 3/11=9,25=1,30=1,71=1/1,2,3;
 4/5=5,16=3,69=1/1;
 5/5=2,38=5/2;
 7//1,2,3,16;
 1/5=1,11=1,18=20/3(-5);
 2/9=110/2;
 6/7=2,8=2,9=2,10=2,19=2,28=1/1;
 99/9=1/99;
 Leave Link    1 at Tue Jan 20 11:42:18 2026, MaxMem=  4294967296 cpu:               0.3 elap:               0.0
 (Enter /root/g16/l101.exe)
 ----------------
 ts_raw_stretched
 ----------------
 Symbolic Z-matrix:
 Charge =  0 Multiplicity = 1
 O                     2.93259  -0.6784   -1.43446 
 C                     2.04891  -0.58406  -0.59854 
 C                     0.86797  -1.4648   -0.55394 
 C                    -0.12596  -1.21891   0.32903 
 C                    -1.46057  -1.90172   0.31303 
 C                    -2.53781  -1.0587   -0.40356 
 C                    -2.64122   0.40189   0.08236 
 C                    -1.42459   1.20392  -0.35168 
 O                    -1.37927   1.72989  -1.44505 
 C                    -0.33024   1.55733   0.48774 
 C                     0.8944    1.92474  -0.0841 
 C                     2.23321   0.29395   0.53886 
 O                     1.44675   0.04142   1.64797 
 C                     0.14463  -0.35964   1.45712 
 H                     0.80281  -2.26385  -1.29762 
 H                    -1.3788   -2.87596  -0.19129 
 H                    -1.78372  -2.08829   1.35107 
 H                    -3.5138   -1.54839  -0.26534 
 H                    -2.33242  -1.05133  -1.48609 
 H                    -2.76244   0.43292   1.17707 
 H                    -3.52334   0.86965  -0.37804 
 H                    -0.56572   1.99289   1.41339 
 H                     1.02057   1.79094  -1.08276 
 H                     1.44976   2.63577   0.42131 
 H                     3.06468   0.8562    0.65144 
 H                    -0.49038  -0.25789   2.2413 
 
 ITRead=  0  0  0  0  0  0  0  0  0  0  0  0  0  0  0  0  0  0  0  0
 ITRead=  0  0  0  0  0  0
 MicOpt= -1 -1 -1 -1 -1 -1 -1 -1 -1 -1 -1 -1 -1 -1 -1 -1 -1 -1 -1 -1
 MicOpt= -1 -1 -1 -1 -1 -1
 NAtoms=     26 NQM=       26 NQMF=       0 NMMI=      0 NMMIF=      0
                NMic=       0 NMicF=      0.
                    Isotopes and Nuclear Properties:
 (Nuclear quadrupole moments (NQMom) in fm**2, nuclear magnetic moments (NMagM)
  in nuclear magnetons)

  Atom         1           2           3           4           5           6           7           8           9          10
 IAtWgt=          16          12          12          12          12          12          12          12          16          12
 AtmWgt=  15.9949146  12.0000000  12.0000000  12.0000000  12.0000000  12.0000000  12.0000000  12.0000000  15.9949146  12.0000000
 NucSpn=           0           0           0           0           0           0           0           0           0           0
 AtZEff=  -0.0000000  -0.0000000  -0.0000000  -0.0000000  -0.0000000  -0.0000000  -0.0000000  -0.0000000  -0.0000000  -0.0000000
 NQMom=    0.0000000   0.0000000   0.0000000   0.0000000   0.0000000   0.0000000   0.0000000   0.0000000   0.0000000   0.0000000
 NMagM=    0.0000000   0.0000000   0.0000000   0.0000000   0.0000000   0.0000000   0.0000000   0.0000000   0.0000000   0.0000000
 AtZNuc=   8.0000000   6.0000000   6.0000000   6.0000000   6.0000000   6.0000000   6.0000000   6.0000000   8.0000000   6.0000000

  Atom        11          12          13          14          15          16          17          18          19          20
 IAtWgt=          12          12          16          12           1           1           1           1           1           1
 AtmWgt=  12.0000000  12.0000000  15.9949146  12.0000000   1.0078250   1.0078250   1.0078250   1.0078250   1.0078250   1.0078250
 NucSpn=           0           0           0           0           1           1           1           1           1           1
 AtZEff=  -0.0000000  -0.0000000  -0.0000000  -0.0000000  -0.0000000  -0.0000000  -0.0000000  -0.0000000  -0.0000000  -0.0000000
 NQMom=    0.0000000   0.0000000   0.0000000   0.0000000   0.0000000   0.0000000   0.0000000   0.0000000   0.0000000   0.0000000
 NMagM=    0.0000000   0.0000000   0.0000000   0.0000000   2.7928460   2.7928460   2.7928460   2.7928460   2.7928460   2.7928460
 AtZNuc=   6.0000000   6.0000000   8.0000000   6.0000000   1.0000000   1.0000000   1.0000000   1.0000000   1.0000000   1.0000000

  Atom        21          22          23          24          25          26
 IAtWgt=           1           1           1           1           1           1
 AtmWgt=   1.0078250   1.0078250   1.0078250   1.0078250   1.0078250   1.0078250
 NucSpn=           1           1           1           1           1           1
 AtZEff=  -0.0000000  -0.0000000  -0.0000000  -0.0000000  -0.0000000  -0.0000000
 NQMom=    0.0000000   0.0000000   0.0000000   0.0000000   0.0000000   0.0000000
 NMagM=    2.7928460   2.7928460   2.7928460   2.7928460   2.7928460   2.7928460
 AtZNuc=   1.0000000   1.0000000   1.0000000   1.0000000   1.0000000   1.0000000
 Leave Link  101 at Tue Jan 20 11:42:18 2026, MaxMem=  4294967296 cpu:               6.6 elap:               0.4
 (Enter /root/g16/l103.exe)

 GradGradGradGradGradGradGradGradGradGradGradGradGradGradGradGradGradGrad
 Berny optimization.
 Initialization pass.
                           ----------------------------
                           !    Initial Parameters    !
                           ! (Angstroms and Degrees)  !
 --------------------------                            --------------------------
 ! Name  Definition              Value          Derivative Info.                !
 --------------------------------------------------------------------------------
 ! R1    R(1,2)                  1.2201         calculate D2E/DX2 analytically  !
 ! R2    R(2,3)                  1.4739         calculate D2E/DX2 analytically  !
 ! R3    R(2,12)                 1.4486         calculate D2E/DX2 analytically  !
 ! R4    R(3,4)                  1.352          calculate D2E/DX2 analytically  !
 ! R5    R(3,15)                 1.0935         calculate D2E/DX2 analytically  !
 ! R6    R(4,5)                  1.4992         calculate D2E/DX2 analytically  !
 ! R7    R(4,14)                 1.4437         calculate D2E/DX2 analytically  !
 ! R8    R(5,6)                  1.5442         calculate D2E/DX2 analytically  !
 ! R9    R(5,16)                 1.1001         calculate D2E/DX2 analytically  !
 ! R10   R(5,17)                 1.1031         calculate D2E/DX2 analytically  !
 ! R11   R(6,7)                  1.5428         calculate D2E/DX2 analytically  !
 ! R12   R(6,18)                 1.1007         calculate D2E/DX2 analytically  !
 ! R13   R(6,19)                 1.1019         calculate D2E/DX2 analytically  !
 ! R14   R(7,8)                  1.5205         calculate D2E/DX2 analytically  !
 ! R15   R(7,20)                 1.1018         calculate D2E/DX2 analytically  !
 ! R16   R(7,21)                 1.0995         calculate D2E/DX2 analytically  !
 ! R17   R(8,9)                  1.2141         calculate D2E/DX2 analytically  !
 ! R18   R(8,10)                 1.4238         calculate D2E/DX2 analytically  !
 ! R19   R(10,11)                1.4006         calculate D2E/DX2 analytically  !
 ! R20   R(10,22)                1.0498         calculate D2E/DX2 analytically  !
 ! R21   R(11,23)                1.0155         calculate D2E/DX2 analytically  !
 ! R22   R(11,24)                1.0341         calculate D2E/DX2 analytically  !
 ! R23   R(12,13)                1.3829         calculate D2E/DX2 analytically  !
 ! R24   R(12,25)                1.01           calculate D2E/DX2 analytically  !
 ! R25   R(13,14)                1.3758         calculate D2E/DX2 analytically  !
 ! R26   R(14,26)                1.0142         calculate D2E/DX2 analytically  !
 ! A1    A(1,2,3)              123.7012         calculate D2E/DX2 analytically  !
 ! A2    A(1,2,12)             119.5158         calculate D2E/DX2 analytically  !
 ! A3    A(3,2,12)             116.127          calculate D2E/DX2 analytically  !
 ! A4    A(2,3,4)              120.0075         calculate D2E/DX2 analytically  !
 ! A5    A(2,3,15)             117.6336         calculate D2E/DX2 analytically  !
 ! A6    A(4,3,15)             122.2235         calculate D2E/DX2 analytically  !
 ! A7    A(3,4,5)              124.3764         calculate D2E/DX2 analytically  !
 ! A8    A(3,4,14)             118.7362         calculate D2E/DX2 analytically  !
 ! A9    A(5,4,14)             116.5041         calculate D2E/DX2 analytically  !
 ! A10   A(4,5,6)              112.1679         calculate D2E/DX2 analytically  !
 ! A11   A(4,5,16)             110.0026         calculate D2E/DX2 analytically  !
 ! A12   A(4,5,17)             109.1344         calculate D2E/DX2 analytically  !
 ! A13   A(6,5,16)             108.8191         calculate D2E/DX2 analytically  !
 ! A14   A(6,5,17)             108.9455         calculate D2E/DX2 analytically  !
 ! A15   A(16,5,17)            107.6613         calculate D2E/DX2 analytically  !
 ! A16   A(5,6,7)              114.6727         calculate D2E/DX2 analytically  !
 ! A17   A(5,6,18)             108.507          calculate D2E/DX2 analytically  !
 ! A18   A(5,6,19)             109.2398         calculate D2E/DX2 analytically  !
 ! A19   A(7,6,18)             108.797          calculate D2E/DX2 analytically  !
 ! A20   A(7,6,19)             108.397          calculate D2E/DX2 analytically  !
 ! A21   A(18,6,19)            106.9564         calculate D2E/DX2 analytically  !
 ! A22   A(6,7,8)              110.8452         calculate D2E/DX2 analytically  !
 ! A23   A(6,7,20)             110.3017         calculate D2E/DX2 analytically  !
 ! A24   A(6,7,21)             108.9447         calculate D2E/DX2 analytically  !
 ! A25   A(8,7,20)             110.9032         calculate D2E/DX2 analytically  !
 ! A26   A(8,7,21)             107.339          calculate D2E/DX2 analytically  !
 ! A27   A(20,7,21)            108.4082         calculate D2E/DX2 analytically  !
 ! A28   A(7,8,9)              121.0273         calculate D2E/DX2 analytically  !
 ! A29   A(7,8,10)             125.2863         calculate D2E/DX2 analytically  !
 ! A30   A(9,8,10)             113.2474         calculate D2E/DX2 analytically  !
 ! A31   A(8,10,11)            119.7662         calculate D2E/DX2 analytically  !
 ! A32   A(8,10,22)            116.7727         calculate D2E/DX2 analytically  !
 ! A33   A(11,10,22)           116.5703         calculate D2E/DX2 analytically  !
 ! A34   A(10,11,23)           118.3984         calculate D2E/DX2 analytically  !
 ! A35   A(10,11,24)           116.7683         calculate D2E/DX2 analytically  !
 ! A36   A(23,11,24)           120.2991         calculate D2E/DX2 analytically  !
 ! A37   A(2,12,13)            116.5302         calculate D2E/DX2 analytically  !
 ! A38   A(2,12,25)            121.9816         calculate D2E/DX2 analytically  !
 ! A39   A(13,12,25)           118.7134         calculate D2E/DX2 analytically  !
 ! A40   A(12,13,14)           118.7009         calculate D2E/DX2 analytically  !
 ! A41   A(4,14,13)            117.3416         calculate D2E/DX2 analytically  !
 ! A42   A(4,14,26)            123.1321         calculate D2E/DX2 analytically  !
 ! A43   A(13,14,26)           117.1362         calculate D2E/DX2 analytically  !
 ! D1    D(1,2,3,4)           -173.9892         calculate D2E/DX2 analytically  !
 ! D2    D(1,2,3,15)             1.8756         calculate D2E/DX2 analytically  !
 ! D3    D(12,2,3,4)            15.3644         calculate D2E/DX2 analytically  !
 ! D4    D(12,2,3,15)         -168.7708         calculate D2E/DX2 analytically  !
 ! D5    D(1,2,12,13)         -159.0737         calculate D2E/DX2 analytically  !
 ! D6    D(1,2,12,25)            1.8            calculate D2E/DX2 analytically  !
 ! D7    D(3,2,12,13)           11.9877         calculate D2E/DX2 analytically  !
 ! D8    D(3,2,12,25)          172.8613         calculate D2E/DX2 analytically  !
 ! D9    D(2,3,4,5)            169.4913         calculate D2E/DX2 analytically  !
 ! D10   D(2,3,4,14)           -17.8773         calculate D2E/DX2 analytically  !
 ! D11   D(15,3,4,5)            -6.1778         calculate D2E/DX2 analytically  !
 ! D12   D(15,3,4,14)          166.4536         calculate D2E/DX2 analytically  !
 ! D13   D(3,4,5,6)            -97.2157         calculate D2E/DX2 analytically  !
 ! D14   D(3,4,5,16)            24.0499         calculate D2E/DX2 analytically  !
 ! D15   D(3,4,5,17)           141.9574         calculate D2E/DX2 analytically  !
 ! D16   D(14,4,5,6)            90.0034         calculate D2E/DX2 analytically  !
 ! D17   D(14,4,5,16)         -148.731          calculate D2E/DX2 analytically  !
 ! D18   D(14,4,5,17)          -30.8235         calculate D2E/DX2 analytically  !
 ! D19   D(3,4,14,13)           -7.0563         calculate D2E/DX2 analytically  !
 ! D20   D(3,4,14,26)         -168.9794         calculate D2E/DX2 analytically  !
 ! D21   D(5,4,14,13)          166.1507         calculate D2E/DX2 analytically  !
 ! D22   D(5,4,14,26)            4.2276         calculate D2E/DX2 analytically  !
 ! D23   D(4,5,6,7)            -50.7563         calculate D2E/DX2 analytically  !
 ! D24   D(4,5,6,18)          -172.6059         calculate D2E/DX2 analytically  !
 ! D25   D(4,5,6,19)            71.1262         calculate D2E/DX2 analytically  !
 ! D26   D(16,5,6,7)          -172.6997         calculate D2E/DX2 analytically  !
 ! D27   D(16,5,6,18)           65.4507         calculate D2E/DX2 analytically  !
 ! D28   D(16,5,6,19)          -50.8172         calculate D2E/DX2 analytically  !
 ! D29   D(17,5,6,7)            70.1796         calculate D2E/DX2 analytically  !
 ! D30   D(17,5,6,18)          -51.67           calculate D2E/DX2 analytically  !
 ! D31   D(17,5,6,19)         -167.9379         calculate D2E/DX2 analytically  !
 ! D32   D(5,6,7,8)             70.2978         calculate D2E/DX2 analytically  !
 ! D33   D(5,6,7,20)           -52.9274         calculate D2E/DX2 analytically  !
 ! D34   D(5,6,7,21)          -171.8067         calculate D2E/DX2 analytically  !
 ! D35   D(18,6,7,8)          -168.0106         calculate D2E/DX2 analytically  !
 ! D36   D(18,6,7,20)           68.7642         calculate D2E/DX2 analytically  !
 ! D37   D(18,6,7,21)          -50.1152         calculate D2E/DX2 analytically  !
 ! D38   D(19,6,7,8)           -52.0423         calculate D2E/DX2 analytically  !
 ! D39   D(19,6,7,20)         -175.2675         calculate D2E/DX2 analytically  !
 ! D40   D(19,6,7,21)           65.8531         calculate D2E/DX2 analytically  !
 ! D41   D(6,7,8,9)             85.7443         calculate D2E/DX2 analytically  !
 ! D42   D(6,7,8,10)          -102.3852         calculate D2E/DX2 analytically  !
 ! D43   D(20,7,8,9)          -151.3781         calculate D2E/DX2 analytically  !
 ! D44   D(20,7,8,10)           20.4924         calculate D2E/DX2 analytically  !
 ! D45   D(21,7,8,9)           -33.1249         calculate D2E/DX2 analytically  !
 ! D46   D(21,7,8,10)          138.7456         calculate D2E/DX2 analytically  !
 ! D47   D(7,8,10,11)          160.4588         calculate D2E/DX2 analytically  !
 ! D48   D(7,8,10,22)          -49.5775         calculate D2E/DX2 analytically  !
 ! D49   D(9,8,10,11)          -27.1197         calculate D2E/DX2 analytically  !
 ! D50   D(9,8,10,22)          122.844          calculate D2E/DX2 analytically  !
 ! D51   D(8,10,11,23)          -9.492          calculate D2E/DX2 analytically  !
 ! D52   D(8,10,11,24)         146.7284         calculate D2E/DX2 analytically  !
 ! D53   D(22,10,11,23)       -159.5144         calculate D2E/DX2 analytically  !
 ! D54   D(22,10,11,24)         -3.2941         calculate D2E/DX2 analytically  !
 ! D55   D(2,12,13,14)         -37.7497         calculate D2E/DX2 analytically  !
 ! D56   D(25,12,13,14)        160.7251         calculate D2E/DX2 analytically  !
 ! D57   D(12,13,14,4)          35.7934         calculate D2E/DX2 analytically  !
 ! D58   D(12,13,14,26)       -161.1833         calculate D2E/DX2 analytically  !
 --------------------------------------------------------------------------------
 Trust Radius=3.00D-01 FncErr=1.00D-07 GrdErr=1.00D-07 EigMax=2.50D+02 EigMin=1.00D-04
 Number of steps in this run=    137 maximum allowed number of steps=    156.
 Search for a saddle point of order  1.
 GradGradGradGradGradGradGradGradGradGradGradGradGradGradGradGradGradGrad

 Leave Link  103 at Tue Jan 20 11:42:18 2026, MaxMem=  4294967296 cpu:               0.3 elap:               0.0
 (Enter /root/g16/l202.exe)
                          Input orientation:                          
 ---------------------------------------------------------------------
 Center     Atomic      Atomic             Coordinates (Angstroms)
 Number     Number       Type             X           Y           Z
 ---------------------------------------------------------------------
      1          8           0        2.932586   -0.678398   -1.434459
      2          6           0        2.048914   -0.584063   -0.598536
      3          6           0        0.867965   -1.464799   -0.553941
      4          6           0       -0.125957   -1.218914    0.329026
      5          6           0       -1.460571   -1.901715    0.313034
      6          6           0       -2.537814   -1.058700   -0.403564
      7          6           0       -2.641224    0.401893    0.082356
      8          6           0       -1.424592    1.203923   -0.351683
      9          8           0       -1.379267    1.729894   -1.445052
     10          6           0       -0.330245    1.557333    0.487735
     11          6           0        0.894396    1.924741   -0.084097
     12          6           0        2.233215    0.293947    0.538860
     13          8           0        1.446745    0.041416    1.647969
     14          6           0        0.144627   -0.359638    1.457125
     15          1           0        0.802805   -2.263851   -1.297617
     16          1           0       -1.378803   -2.875964   -0.191286
     17          1           0       -1.783717   -2.088292    1.351067
     18          1           0       -3.513801   -1.548389   -0.265342
     19          1           0       -2.332420   -1.051329   -1.486092
     20          1           0       -2.762441    0.432922    1.177071
     21          1           0       -3.523336    0.869647   -0.378042
     22          1           0       -0.565718    1.992892    1.413389
     23          1           0        1.020570    1.790943   -1.082761
     24          1           0        1.449755    2.635766    0.421311
     25          1           0        3.064682    0.856201    0.651441
     26          1           0       -0.490378   -0.257887    2.241301
 ---------------------------------------------------------------------
                    Distance matrix (angstroms):
                    1          2          3          4          5
     1  O    0.000000
     2  C    1.220058   0.000000
     3  C    2.378318   1.473881   0.000000
     4  C    3.571655   2.448157   1.352025   0.000000
     5  C    4.883653   3.857934   2.522820   1.499222   0.000000
     6  C    5.579664   4.615341   3.433200   2.525750   1.544228
     7  C    5.876658   4.840777   4.025397   3.002404   2.598800
     8  C    4.868320   3.914470   3.524032   2.831953   3.176182
     9  O    4.938832   4.221778   4.006269   3.662459   4.035599
    10  C    4.397657   3.380231   3.413807   2.788274   3.643237
    11  C    3.571278   2.809209   3.422051   3.330820   4.510582
    12  C    2.308368   1.448633   2.480183   2.810422   4.303020
    13  O    3.496744   2.408447   2.729849   2.408617   3.743033
    14  C    4.029340   2.811124   2.406031   1.443668   2.502719
    15  H    2.658638   2.205264   1.093519   2.144868   2.801466
    16  H    4.996284   4.143417   2.677848   2.141533   1.100084
    17  H    5.656012   4.555515   3.324036   2.132734   1.103062
    18  H    6.609056   5.655505   4.392055   3.455331   2.162201
    19  H    5.278450   4.494684   3.358918   2.862030   2.172586
    20  H    6.363054   5.228401   4.447201   3.224716   2.809262
    21  H    6.722454   5.762973   4.976354   4.050212   3.523213
    22  H    5.242534   4.186268   4.228648   3.418323   4.144817
    23  H    3.142792   2.632987   3.301938   3.516661   4.662620
    24  H    4.077543   3.430215   4.254907   4.165326   5.391702
    25  H    2.592956   2.160691   3.415487   3.819716   5.310229
    26  H    5.040310   3.823489   3.333933   2.170984   2.713238
                    6          7          8          9         10
     6  C    0.000000
     7  C    1.542771   0.000000
     8  C    2.522185   1.520472   0.000000
     9  O    3.194242   2.385183   1.214148   0.000000
    10  C    3.537147   2.615340   1.423769   2.205877   0.000000
    11  C    4.558843   3.853230   2.443131   2.657011   1.400616
    12  C    5.047824   4.896958   3.873070   4.364387   2.858336
    13  O    4.614732   4.392332   3.687086   4.517088   2.608034
    14  C    3.338613   3.198575   2.859888   3.887291   2.200000
    15  H    3.662165   4.568572   4.228658   4.553370   4.367234
    16  H    2.165829   3.523199   4.083295   4.773453   4.605939
    17  H    2.169666   2.923349   3.723843   4.749780   4.018521
    18  H    1.100659   2.164690   3.456511   4.085963   4.510839
    19  H    1.101866   2.160380   2.682759   2.940304   3.835338
    20  H    2.184903   1.101843   2.172872   3.235867   2.766779
    21  H    2.165739   1.099492   2.125362   2.544714   3.379100
    22  H    4.062351   2.934391   2.115565   2.983574   1.049759
    23  H    4.609107   4.086036   2.618756   2.427797   2.084642
    24  H    5.498200   4.673456   3.302963   3.508173   2.082265
    25  H    6.013971   5.752184   4.613106   4.990722   3.470434
    26  H    3.439274   3.118091   3.119809   4.281424   2.528964
                   11         12         13         14         15
    11  C    0.000000
    12  C    2.200000   0.000000
    13  O    2.617643   1.382906   0.000000
    14  C    2.855855   2.373306   1.375783   0.000000
    15  H    4.361803   3.458475   3.795444   3.412891   0.000000
    16  H    5.312786   4.860877   4.458440   3.371942   2.521520
    17  H    5.033530   4.740304   3.880682   2.591911   3.706271
    18  H    5.614952   6.088442   5.549347   4.214749   4.495616
    19  H    4.608137   5.172545   5.029763   3.908545   3.366804
    20  H    4.145905   5.038174   4.253501   3.026157   5.109564
    21  H    4.551482   5.857475   5.430690   4.281697   5.420325
    22  H    2.092617   3.388988   2.813058   2.457825   5.228984
    23  H    1.015456   2.518166   3.270987   3.441409   4.066318
    24  H    1.034126   2.472194   2.869730   3.427640   5.232543
    25  H    2.528425   1.010021   2.067526   3.264064   4.318523
    26  H    3.476916   3.258954   2.047943   1.014158   4.268507
                   16         17         18         19         20
    16  H    0.000000
    17  H    1.778549   0.000000
    18  H    2.515185   2.428469   0.000000
    19  H    2.432119   3.070153   1.770017   0.000000
    20  H    3.838695   2.710110   2.563336   3.079019   0.000000
    21  H    4.320127   3.842590   2.420680   2.517182   1.785516
    22  H    5.190554   4.259515   4.904080   4.560209   2.704615
    23  H    5.322757   5.369917   5.690328   4.414038   4.611099
    24  H    6.225366   5.799699   6.528057   5.615844   4.813137
    25  H    5.863770   5.715460   7.063921   6.110354   5.866073
    26  H    3.682541   2.411561   4.133974   4.232745   2.602321
                   21         22         23         24         25
    21  H    0.000000
    22  H    3.635713   0.000000
    23  H    4.689616   2.964432   0.000000
    24  H    5.337581   2.336587   1.777683   0.000000
    25  H    6.667983   3.879747   2.838942   2.414084   0.000000
    26  H    4.163067   2.399400   4.186891   3.930612   4.050592
                   26
    26  H    0.000000
 Stoichiometry    C11H12O3
 Framework group  C1[X(C11H12O3)]
 Deg. of freedom    72
 Full point group                 C1      NOp   1
 Largest Abelian subgroup         C1      NOp   1
 Largest concise Abelian subgroup C1      NOp   1
                         Standard orientation:                         
 ---------------------------------------------------------------------
 Center     Atomic      Atomic             Coordinates (Angstroms)
 Number     Number       Type             X           Y           Z
 ---------------------------------------------------------------------
      1          8           0        2.938052   -0.506555   -1.493054
      2          6           0        2.059424   -0.487738   -0.646767
      3          6           0        0.904553   -1.403487   -0.646419
      4          6           0       -0.088192   -1.239448    0.256643
      5          6           0       -1.402846   -1.958559    0.209402
      6          6           0       -2.509984   -1.106104   -0.448021
      7          6           0       -2.650801    0.319427    0.124844
      8          6           0       -1.461436    1.180811   -0.269191
      9          8           0       -1.440761    1.771892   -1.329546
     10          6           0       -0.370297    1.515366    0.582048
     11          6           0        0.838278    1.951496    0.024497
     12          6           0        2.228555    0.326143    0.539627
     13          8           0        1.459394   -0.014551    1.637237
     14          6           0        0.167637   -0.441202    1.432029
     15          1           0        0.855713   -2.158510   -1.435937
     16          1           0       -1.297715   -2.898346   -0.352677
     17          1           0       -1.711398   -2.215768    1.236722
     18          1           0       -3.470333   -1.631272   -0.332347
     19          1           0       -2.314403   -1.028485   -1.529608
     20          1           0       -2.763232    0.281845    1.220291
     21          1           0       -3.549925    0.787890   -0.300597
     22          1           0       -0.609975    1.888152    1.533668
     23          1           0        0.959443    1.880973   -0.981235
     24          1           0        1.377518    2.647071    0.567463
     25          1           0        3.044579    0.904624    0.679652
     26          1           0       -0.463101   -0.404691    2.225347
 ---------------------------------------------------------------------
 Rotational constants (GHZ):           1.0932789           0.6543778           0.5654714
 Leave Link  202 at Tue Jan 20 11:42:18 2026, MaxMem=  4294967296 cpu:               0.3 elap:               0.0
 (Enter /root/g16/l301.exe)
 Standard basis: STO-3G (5D, 7F)
 Ernie: Thresh=  0.10000D-02 Tol=  0.10000D-05 Strict=F.
 There are    82 symmetry adapted cartesian basis functions of A   symmetry.
 There are    82 symmetry adapted basis functions of A   symmetry.
    82 basis functions,   246 primitive gaussians,    82 cartesian basis functions
    51 alpha electrons       51 beta electrons
       nuclear repulsion energy       930.0922532666 Hartrees.
 IExCor=    0 DFT=F Ex=HF Corr=None ExCW=0 ScaHFX=  1.000000
 ScaDFX=  1.000000  1.000000  1.000000  1.000000 ScalE2=  1.000000  1.000000
 IRadAn=      5 IRanWt=     -1 IRanGd=            0 ICorTp=0 IEmpDi=  4
 NAtoms=   26 NActive=   26 NUniq=   26 SFac= 1.00D+00 NAtFMM=   60 NAOKFM=F Big=F
 Integral buffers will be    131072 words long.
 Raffenetti 1 integral format.
 Two-electron integral symmetry is turned on.
 Leave Link  301 at Tue Jan 20 11:42:18 2026, MaxMem=  4294967296 cpu:               0.2 elap:               0.0
 (Enter /root/g16/l302.exe)
 NPDir=0 NMtPBC=     1 NCelOv=     1 NCel=       1 NClECP=     1 NCelD=      1
         NCelK=      1 NCelE2=     1 NClLst=     1 CellRange=     0.0.
 One-electron integrals computed using PRISM.
 One-electron integral symmetry used in STVInt
 NBasis=    82 RedAO= T EigKep=  1.85D-01  NBF=    82
 NBsUse=    82 1.00D-06 EigRej= -1.00D+00 NBFU=    82
 Leave Link  302 at Tue Jan 20 11:42:18 2026, MaxMem=  4294967296 cpu:               0.6 elap:               0.0
 (Enter /root/g16/l303.exe)
 DipDrv:  MaxL=1.
 Leave Link  303 at Tue Jan 20 11:42:18 2026, MaxMem=  4294967296 cpu:               0.2 elap:               0.0
 (Enter /root/g16/l401.exe)
 ExpMin= 1.69D-01 ExpMax= 1.31D+02 ExpMxC= 1.31D+02 IAcc=3 IRadAn=         5 AccDes= 0.00D+00
 Harris functional with IExCor=  205 and IRadAn=       5 diagonalized for initial guess.
 HarFok:  IExCor=  205 AccDes= 0.00D+00 IRadAn=         5 IDoV= 1 UseB2=F ITyADJ=14
 ICtDFT=  3500011 ScaDFX=  1.000000  1.000000  1.000000  1.000000
 FoFCou: FMM=F IPFlag=           0 FMFlag=      100000 FMFlg1=           0
         NFxFlg=           0 DoJE=T BraDBF=F KetDBF=T FulRan=T
         wScrn=  0.000000 ICntrl=       500 IOpCl=  0 I1Cent=   200000004 NGrid=           0
         NMat0=    1 NMatS0=      1 NMatT0=    0 NMatD0=    1 NMtDS0=    0 NMtDT0=    0
 Petite list used in FoFCou.
 Harris En= -640.377641420765    
 JPrj=0 DoOrth=F DoCkMO=F.
 Leave Link  401 at Tue Jan 20 11:42:19 2026, MaxMem=  4294967296 cpu:               2.9 elap:               0.2
 (Enter /root/g16/l502.exe)
 Integral symmetry usage will be decided dynamically.
 Closed shell SCF:
 Using DIIS extrapolation, IDIIS=  1040.
 NGot=  4294967296 LenX=  4294950944 LenY=  4294943779
 Requested convergence on RMS density matrix=1.00D-08 within 128 cycles.
 Requested convergence on MAX density matrix=1.00D-06.
 Requested convergence on             energy=1.00D-06.
 No special actions if energy rises.
 Fock matrices will be formed incrementally for  20 cycles.
 Integral accuracy reduced to 1.0D-05 until final iterations.

 Cycle   1  Pass 0  IDiag  1:
 FoFJK:  IHMeth= 1 ICntrl=       0 DoSepK=F KAlg= 0 I1Cent=           0 FoldK=F
 IRaf= 910000000 NMat=       1 IRICut=       1 DoRegI=T DoRafI=F ISym2E= 0 IDoP0=0 IntGTp=1.
 FoFCou: FMM=F IPFlag=           0 FMFlag=      100000 FMFlg1=           0
         NFxFlg=           0 DoJE=F BraDBF=F KetDBF=F FulRan=T
         wScrn=  0.000000 ICntrl=         0 IOpCl=  0 I1Cent=           0 NGrid=           0
         NMat0=    1 NMatS0=      1 NMatT0=    0 NMatD0=    1 NMtDS0=    0 NMtDT0=    0
 Symmetry not used in FoFCou.
 E= -639.495432722147    
 DIIS: error= 3.99D-02 at cycle   1 NSaved=   1.
 NSaved= 1 IEnMin= 1 EnMin= -639.495432722147     IErMin= 1 ErrMin= 3.99D-02
 ErrMax= 3.99D-02  0.00D+00 EMaxC= 1.00D-01 BMatC= 2.49D-01 BMatP= 2.49D-01
 IDIUse=3 WtCom= 6.01D-01 WtEn= 3.99D-01
 Coeff-Com:  0.100D+01
 Coeff-En:   0.100D+01
 Coeff:      0.100D+01
 Gap=     0.399 Goal=   None    Shift=    0.000
 GapD=    0.399 DampG=1.000 DampE=0.500 DampFc=0.5000 IDamp=-1.
 Damping current iteration by 5.00D-01
 RMSDP=8.84D-03 MaxDP=1.25D-01              OVMax= 0.00D+00

 Cycle   2  Pass 0  IDiag  1:
 RMSU=  4.42D-03    CP:  9.98D-01
 E= -639.617266954526     Delta-E=       -0.121834232378 Rises=F Damp=T
 DIIS: error= 2.27D-02 at cycle   2 NSaved=   2.
 NSaved= 2 IEnMin= 2 EnMin= -639.617266954526     IErMin= 2 ErrMin= 2.27D-02
 ErrMax= 2.27D-02  0.00D+00 EMaxC= 1.00D-01 BMatC= 5.39D-02 BMatP= 2.49D-01
 IDIUse=3 WtCom= 7.73D-01 WtEn= 2.27D-01
 Coeff-Com: -0.694D+00 0.169D+01
 Coeff-En:   0.000D+00 0.100D+01
 Coeff:     -0.536D+00 0.154D+01
 Gap=     0.383 Goal=   None    Shift=    0.000
 RMSDP=3.27D-03 MaxDP=3.92D-02 DE=-1.22D-01 OVMax= 0.00D+00

 Cycle   3  Pass 0  IDiag  1:
 RMSU=  2.01D-03    CP:  9.96D-01  1.58D+00
 E= -639.733062033853     Delta-E=       -0.115795079327 Rises=F Damp=F
 DIIS: error= 2.68D-03 at cycle   3 NSaved=   3.
 NSaved= 3 IEnMin= 3 EnMin= -639.733062033853     IErMin= 3 ErrMin= 2.68D-03
 ErrMax= 2.68D-03  0.00D+00 EMaxC= 1.00D-01 BMatC= 8.42D-04 BMatP= 5.39D-02
 IDIUse=3 WtCom= 9.73D-01 WtEn= 2.68D-02
 Coeff-Com: -0.792D-01 0.119D+00 0.960D+00
 Coeff-En:   0.000D+00 0.000D+00 0.100D+01
 Coeff:     -0.771D-01 0.116D+00 0.961D+00
 Gap=     0.369 Goal=   None    Shift=    0.000
 RMSDP=7.90D-04 MaxDP=1.16D-02 DE=-1.16D-01 OVMax= 0.00D+00

 Cycle   4  Pass 0  IDiag  1:
 RMSU=  6.32D-04    CP:  9.96D-01  1.69D+00  1.05D+00
 E= -639.735059163506     Delta-E=       -0.001997129652 Rises=F Damp=F
 DIIS: error= 9.16D-04 at cycle   4 NSaved=   4.
 NSaved= 4 IEnMin= 4 EnMin= -639.735059163506     IErMin= 4 ErrMin= 9.16D-04
 ErrMax= 9.16D-04  0.00D+00 EMaxC= 1.00D-01 BMatC= 2.06D-04 BMatP= 8.42D-04
 IDIUse=3 WtCom= 9.91D-01 WtEn= 9.16D-03
 Coeff-Com:  0.294D-01-0.757D-01 0.202D+00 0.844D+00
 Coeff-En:   0.000D+00 0.000D+00 0.000D+00 0.100D+01
 Coeff:      0.291D-01-0.750D-01 0.201D+00 0.845D+00
 Gap=     0.373 Goal=   None    Shift=    0.000
 RMSDP=2.93D-04 MaxDP=3.42D-03 DE=-2.00D-03 OVMax= 0.00D+00

 Cycle   5  Pass 0  IDiag  1:
 RMSU=  2.16D-04    CP:  9.96D-01  1.70D+00  1.14D+00  1.07D+00
 E= -639.735421545500     Delta-E=       -0.000362381995 Rises=F Damp=F
 DIIS: error= 4.77D-04 at cycle   5 NSaved=   5.
 NSaved= 5 IEnMin= 5 EnMin= -639.735421545500     IErMin= 5 ErrMin= 4.77D-04
 ErrMax= 4.77D-04  0.00D+00 EMaxC= 1.00D-01 BMatC= 2.94D-05 BMatP= 2.06D-04
 IDIUse=3 WtCom= 9.95D-01 WtEn= 4.77D-03
 Coeff-Com:  0.261D-01-0.461D-01-0.125D+00-0.506D-01 0.120D+01
 Coeff-En:   0.000D+00 0.000D+00 0.000D+00 0.000D+00 0.100D+01
 Coeff:      0.260D-01-0.459D-01-0.125D+00-0.504D-01 0.119D+01
 Gap=     0.373 Goal=   None    Shift=    0.000
 RMSDP=2.15D-04 MaxDP=2.30D-03 DE=-3.62D-04 OVMax= 0.00D+00

 Cycle   6  Pass 0  IDiag  1:
 RMSU=  9.07D-05    CP:  9.96D-01  1.71D+00  1.19D+00  1.29D+00  1.33D+00
 E= -639.735536102323     Delta-E=       -0.000114556823 Rises=F Damp=F
 DIIS: error= 2.00D-04 at cycle   6 NSaved=   6.
 NSaved= 6 IEnMin= 6 EnMin= -639.735536102323     IErMin= 6 ErrMin= 2.00D-04
 ErrMax= 2.00D-04  0.00D+00 EMaxC= 1.00D-01 BMatC= 6.06D-06 BMatP= 2.94D-05
 IDIUse=3 WtCom= 9.98D-01 WtEn= 2.00D-03
 Coeff-Com:  0.127D-02 0.697D-04-0.187D-01-0.156D+00 0.152D+00 0.102D+01
 Coeff-En:   0.000D+00 0.000D+00 0.000D+00 0.000D+00 0.000D+00 0.100D+01
 Coeff:      0.127D-02 0.696D-04-0.187D-01-0.155D+00 0.152D+00 0.102D+01
 Gap=     0.373 Goal=   None    Shift=    0.000
 RMSDP=8.25D-05 MaxDP=1.16D-03 DE=-1.15D-04 OVMax= 0.00D+00

 Cycle   7  Pass 0  IDiag  1:
 RMSU=  3.32D-05    CP:  9.96D-01  1.71D+00  1.20D+00  1.35D+00  1.59D+00
                    CP:  1.27D+00
 E= -639.735553831354     Delta-E=       -0.000017729031 Rises=F Damp=F
 DIIS: error= 1.06D-04 at cycle   7 NSaved=   7.
 NSaved= 7 IEnMin= 7 EnMin= -639.735553831354     IErMin= 7 ErrMin= 1.06D-04
 ErrMax= 1.06D-04  0.00D+00 EMaxC= 1.00D-01 BMatC= 8.74D-07 BMatP= 6.06D-06
 IDIUse=3 WtCom= 9.99D-01 WtEn= 1.06D-03
 Coeff-Com: -0.357D-02 0.599D-02 0.309D-01-0.339D-02-0.198D+00-0.563D-01
 Coeff-Com:  0.122D+01
 Coeff-En:   0.000D+00 0.000D+00 0.000D+00 0.000D+00 0.000D+00 0.000D+00
 Coeff-En:   0.100D+01
 Coeff:     -0.357D-02 0.598D-02 0.309D-01-0.338D-02-0.198D+00-0.562D-01
 Coeff:      0.122D+01
 Gap=     0.373 Goal=   None    Shift=    0.000
 RMSDP=4.24D-05 MaxDP=5.21D-04 DE=-1.77D-05 OVMax= 0.00D+00

 Cycle   8  Pass 0  IDiag  1:
 RMSU=  1.38D-05    CP:  9.96D-01  1.71D+00  1.21D+00  1.37D+00  1.69D+00
                    CP:  1.57D+00  1.39D+00
 E= -639.735557181600     Delta-E=       -0.000003350246 Rises=F Damp=F
 DIIS: error= 2.55D-05 at cycle   8 NSaved=   8.
 NSaved= 8 IEnMin= 8 EnMin= -639.735557181600     IErMin= 8 ErrMin= 2.55D-05
 ErrMax= 2.55D-05  0.00D+00 EMaxC= 1.00D-01 BMatC= 1.14D-07 BMatP= 8.74D-07
 IDIUse=1 WtCom= 1.00D+00 WtEn= 0.00D+00
 Coeff-Com: -0.845D-03 0.103D-02 0.114D-01 0.176D-01-0.751D-01-0.146D+00
 Coeff-Com:  0.327D+00 0.865D+00
 Coeff:     -0.845D-03 0.103D-02 0.114D-01 0.176D-01-0.751D-01-0.146D+00
 Coeff:      0.327D+00 0.865D+00
 Gap=     0.373 Goal=   None    Shift=    0.000
 RMSDP=1.27D-05 MaxDP=2.47D-04 DE=-3.35D-06 OVMax= 0.00D+00

 Cycle   9  Pass 0  IDiag  1:
 RMSU=  4.92D-06    CP:  9.96D-01  1.71D+00  1.21D+00  1.37D+00  1.71D+00
                    CP:  1.65D+00  1.62D+00  1.02D+00
 E= -639.735557493069     Delta-E=       -0.000000311468 Rises=F Damp=F
 DIIS: error= 1.00D-05 at cycle   9 NSaved=   9.
 NSaved= 9 IEnMin= 9 EnMin= -639.735557493069     IErMin= 9 ErrMin= 1.00D-05
 ErrMax= 1.00D-05  0.00D+00 EMaxC= 1.00D-01 BMatC= 1.33D-08 BMatP= 1.14D-07
 IDIUse=1 WtCom= 1.00D+00 WtEn= 0.00D+00
 Coeff-Com:  0.780D-03-0.122D-02-0.700D-02-0.458D-02 0.425D-01 0.665D-01
 Coeff-Com: -0.277D+00-0.211D+00 0.139D+01
 Coeff:      0.780D-03-0.122D-02-0.700D-02-0.458D-02 0.425D-01 0.665D-01
 Coeff:     -0.277D+00-0.211D+00 0.139D+01
 Gap=     0.373 Goal=   None    Shift=    0.000
 RMSDP=6.01D-06 MaxDP=1.15D-04 DE=-3.11D-07 OVMax= 0.00D+00

 Initial convergence to 1.0D-05 achieved.  Increase integral accuracy.
 Cycle  10  Pass 1  IDiag  1:
 E= -639.735567429566     Delta-E=       -0.000009936497 Rises=F Damp=F
 DIIS: error= 4.72D-06 at cycle   1 NSaved=   1.
 NSaved= 1 IEnMin= 1 EnMin= -639.735567429566     IErMin= 1 ErrMin= 4.72D-06
 ErrMax= 4.72D-06  0.00D+00 EMaxC= 1.00D-01 BMatC= 2.37D-09 BMatP= 2.37D-09
 IDIUse=1 WtCom= 1.00D+00 WtEn= 0.00D+00
 Coeff-Com:  0.100D+01
 Coeff:      0.100D+01
 Gap=     0.373 Goal=   None    Shift=    0.000
 RMSDP=6.01D-06 MaxDP=1.15D-04 DE=-9.94D-06 OVMax= 0.00D+00

 Cycle  11  Pass 1  IDiag  1:
 RMSU=  1.37D-06    CP:  1.00D+00
 E= -639.735567437944     Delta-E=       -0.000000008378 Rises=F Damp=F
 DIIS: error= 3.28D-06 at cycle   2 NSaved=   2.
 NSaved= 2 IEnMin= 2 EnMin= -639.735567437944     IErMin= 2 ErrMin= 3.28D-06
 ErrMax= 3.28D-06  0.00D+00 EMaxC= 1.00D-01 BMatC= 7.32D-10 BMatP= 2.37D-09
 IDIUse=1 WtCom= 1.00D+00 WtEn= 0.00D+00
 Coeff-Com: -0.306D+00 0.131D+01
 Coeff:     -0.306D+00 0.131D+01
 Gap=     0.373 Goal=   None    Shift=    0.000
 RMSDP=1.13D-06 MaxDP=2.68D-05 DE=-8.38D-09 OVMax= 0.00D+00

 Cycle  12  Pass 1  IDiag  1:
 RMSU=  5.13D-07    CP:  1.00D+00  1.74D+00
 E= -639.735567442256     Delta-E=       -0.000000004311 Rises=F Damp=F
 DIIS: error= 1.96D-06 at cycle   3 NSaved=   3.
 NSaved= 3 IEnMin= 3 EnMin= -639.735567442256     IErMin= 3 ErrMin= 1.96D-06
 ErrMax= 1.96D-06  0.00D+00 EMaxC= 1.00D-01 BMatC= 3.02D-10 BMatP= 7.32D-10
 IDIUse=1 WtCom= 1.00D+00 WtEn= 0.00D+00
 Coeff-Com: -0.323D+00-0.248D-01 0.135D+01
 Coeff:     -0.323D+00-0.248D-01 0.135D+01
 Gap=     0.373 Goal=   None    Shift=    0.000
 RMSDP=1.07D-06 MaxDP=2.64D-05 DE=-4.31D-09 OVMax= 0.00D+00

 Cycle  13  Pass 1  IDiag  1:
 RMSU=  2.64D-07    CP:  1.00D+00  2.46D+00  1.53D+00
 E= -639.735567444347     Delta-E=       -0.000000002091 Rises=F Damp=F
 DIIS: error= 8.87D-07 at cycle   4 NSaved=   4.
 NSaved= 4 IEnMin= 4 EnMin= -639.735567444347     IErMin= 4 ErrMin= 8.87D-07
 ErrMax= 8.87D-07  0.00D+00 EMaxC= 1.00D-01 BMatC= 5.46D-11 BMatP= 3.02D-10
 IDIUse=1 WtCom= 1.00D+00 WtEn= 0.00D+00
 Coeff-Com:  0.442D-01-0.394D+00 0.272D+00 0.108D+01
 Coeff:      0.442D-01-0.394D+00 0.272D+00 0.108D+01
 Gap=     0.373 Goal=   None    Shift=    0.000
 RMSDP=4.86D-07 MaxDP=1.24D-05 DE=-2.09D-09 OVMax= 0.00D+00

 Cycle  14  Pass 1  IDiag  1:
 RMSU=  1.06D-07    CP:  1.00D+00  2.76D+00  1.97D+00  1.35D+00
 E= -639.735567444705     Delta-E=       -0.000000000359 Rises=F Damp=F
 DIIS: error= 3.87D-07 at cycle   5 NSaved=   5.
 NSaved= 5 IEnMin= 5 EnMin= -639.735567444705     IErMin= 5 ErrMin= 3.87D-07
 ErrMax= 3.87D-07  0.00D+00 EMaxC= 1.00D-01 BMatC= 7.88D-12 BMatP= 5.46D-11
 IDIUse=1 WtCom= 1.00D+00 WtEn= 0.00D+00
 Coeff-Com:  0.312D-01-0.425D-01-0.537D-01-0.439D-01 0.111D+01
 Coeff:      0.312D-01-0.425D-01-0.537D-01-0.439D-01 0.111D+01
 Gap=     0.373 Goal=   None    Shift=    0.000
 RMSDP=1.39D-07 MaxDP=3.45D-06 DE=-3.59D-10 OVMax= 0.00D+00

 Cycle  15  Pass 1  IDiag  1:
 RMSU=  5.72D-08    CP:  1.00D+00  2.82D+00  2.09D+00  1.57D+00  1.39D+00
 E= -639.735567444749     Delta-E=       -0.000000000043 Rises=F Damp=F
 DIIS: error= 2.09D-07 at cycle   6 NSaved=   6.
 NSaved= 6 IEnMin= 6 EnMin= -639.735567444749     IErMin= 6 ErrMin= 2.09D-07
 ErrMax= 2.09D-07  0.00D+00 EMaxC= 1.00D-01 BMatC= 2.99D-12 BMatP= 7.88D-12
 IDIUse=1 WtCom= 1.00D+00 WtEn= 0.00D+00
 Coeff-Com: -0.200D-01 0.149D+00-0.499D-01-0.525D+00 0.175D-01 0.143D+01
 Coeff:     -0.200D-01 0.149D+00-0.499D-01-0.525D+00 0.175D-01 0.143D+01
 Gap=     0.373 Goal=   None    Shift=    0.000
 RMSDP=1.09D-07 MaxDP=2.14D-06 DE=-4.32D-11 OVMax= 0.00D+00

 Cycle  16  Pass 1  IDiag  1:
 RMSU=  1.88D-08    CP:  1.00D+00  2.85D+00  2.16D+00  1.75D+00  2.10D+00
                    CP:  1.56D+00
 E= -639.735567444765     Delta-E=       -0.000000000016 Rises=F Damp=F
 DIIS: error= 5.88D-08 at cycle   7 NSaved=   7.
 NSaved= 7 IEnMin= 7 EnMin= -639.735567444765     IErMin= 7 ErrMin= 5.88D-08
 ErrMax= 5.88D-08  0.00D+00 EMaxC= 1.00D-01 BMatC= 1.83D-13 BMatP= 2.99D-12
 IDIUse=1 WtCom= 1.00D+00 WtEn= 0.00D+00
 Coeff-Com: -0.539D-02 0.206D-01 0.223D-02-0.615D-01-0.109D+00 0.168D+00
 Coeff-Com:  0.986D+00
 Coeff:     -0.539D-02 0.206D-01 0.223D-02-0.615D-01-0.109D+00 0.168D+00
 Coeff:      0.986D+00
 Gap=     0.373 Goal=   None    Shift=    0.000
 RMSDP=2.15D-08 MaxDP=4.58D-07 DE=-1.61D-11 OVMax= 0.00D+00

 Cycle  17  Pass 1  IDiag  1:
 RMSU=  8.02D-09    CP:  1.00D+00  2.85D+00  2.17D+00  1.78D+00  2.22D+00
                    CP:  1.75D+00  1.20D+00
 E= -639.735567444765     Delta-E=       -0.000000000000 Rises=F Damp=F
 DIIS: error= 2.93D-08 at cycle   8 NSaved=   8.
 NSaved= 8 IEnMin= 8 EnMin= -639.735567444765     IErMin= 8 ErrMin= 2.93D-08
 ErrMax= 2.93D-08  0.00D+00 EMaxC= 1.00D-01 BMatC= 3.80D-14 BMatP= 1.83D-13
 IDIUse=1 WtCom= 1.00D+00 WtEn= 0.00D+00
 Coeff-Com:  0.401D-02-0.277D-01 0.732D-02 0.991D-01 0.524D-02-0.252D+00
 Coeff-Com: -0.119D+00 0.128D+01
 Coeff:      0.401D-02-0.277D-01 0.732D-02 0.991D-01 0.524D-02-0.252D+00
 Coeff:     -0.119D+00 0.128D+01
 Gap=     0.373 Goal=   None    Shift=    0.000
 RMSDP=9.82D-09 MaxDP=2.29D-07 DE=-4.55D-13 OVMax= 0.00D+00

 SCF Done:  E(RHF) =  -639.735567445     A.U. after   17 cycles
            NFock= 17  Conv=0.98D-08     -V/T= 2.0082
 KE= 6.345221443855D+02 PE=-3.359550263764D+03 EE= 1.155200298667D+03
 Leave Link  502 at Tue Jan 20 11:42:19 2026, MaxMem=  4294967296 cpu:               8.7 elap:               0.6
 (Enter /root/g16/l801.exe)
 Range of M.O.s used for correlation:     1    82
 NBasis=    82 NAE=    51 NBE=    51 NFC=     0 NFV=     0
 NROrb=     82 NOA=    51 NOB=    51 NVA=    31 NVB=    31
 Leave Link  801 at Tue Jan 20 11:42:19 2026, MaxMem=  4294967296 cpu:               0.1 elap:               0.0
 (Enter /root/g16/l1101.exe)
 Using compressed storage, NAtomX=    26.
 Will process     27 centers per pass.
 Leave Link 1101 at Tue Jan 20 11:42:19 2026, MaxMem=  4294967296 cpu:               0.7 elap:               0.1
 (Enter /root/g16/l1102.exe)
 Symmetrizing basis deriv contribution to polar:
 IMax=3 JMax=2 DiffMx= 0.00D+00
 Leave Link 1102 at Tue Jan 20 11:42:19 2026, MaxMem=  4294967296 cpu:               0.2 elap:               0.0
 (Enter /root/g16/l1110.exe)
 Forming Gx(P) for the SCF density, NAtomX=    26.
 Integral derivatives from FoFJK, PRISM(SPDF).
 Do as many integral derivatives as possible in FoFJK.
 G2DrvN: MDV=    4294965288.
 G2DrvN: will do    27 centers at a time, making    1 passes.
 Calling FoFCou, ICntrl=  3107 FMM=F I1Cent=   0 AccDes= 0.00D+00.
 FoFJK:  IHMeth= 1 ICntrl=    3107 DoSepK=F KAlg= 0 I1Cent=           0 FoldK=F
 IRaf=         0 NMat=       1 IRICut=       1 DoRegI=T DoRafI=F ISym2E= 0 IDoP0=0 IntGTp=1.
 FoFCou: FMM=F IPFlag=           0 FMFlag=      100000 FMFlg1=           0
         NFxFlg=           0 DoJE=F BraDBF=F KetDBF=F FulRan=T
         wScrn=  0.000000 ICntrl=      3107 IOpCl=  0 I1Cent=           0 NGrid=           0
         NMat0=    1 NMatS0=      1 NMatT0=    0 NMatD0=    1 NMtDS0=    0 NMtDT0=    0
 Symmetry not used in FoFCou.
 End of G2Drv F.D. properties file   721 does not exist.
 End of G2Drv F.D. properties file   722 does not exist.
 End of G2Drv F.D. properties file   788 does not exist.
 Leave Link 1110 at Tue Jan 20 11:42:20 2026, MaxMem=  4294967296 cpu:               2.5 elap:               0.2
 (Enter /root/g16/l1002.exe)
 Minotr:  Closed shell wavefunction.
          IDoAtm=11111111111111111111111111
          Direct CPHF calculation.
          Differentiating once with respect to nuclear coordinates.
          Requested convergence is 1.0D-08 RMS, and 1.0D-07 maximum.
          Secondary convergence is 1.0D-12 RMS, and 1.0D-12 maximum.
          NewPWx=T KeepS1=F KeepF1=F KeepIn=T MapXYZ=F SortEE=F KeepMc=T.
 Keep R1 ints in memory in canonical form, NReq=9164465.
 FoFCou: FMM=F IPFlag=           0 FMFlag=           0 FMFlg1=           0
         NFxFlg=           0 DoJE=F BraDBF=F KetDBF=F FulRan=T
         wScrn=  0.000000 ICntrl=       600 IOpCl=  0 I1Cent=           0 NGrid=           0
         NMat0=    1 NMatS0=   3403 NMatT0=    0 NMatD0=    1 NMtDS0=    0 NMtDT0=    0
 Symmetry not used in FoFCou.
 Two-electron integral symmetry not used.
          MDV=    4294967296 using IRadAn=       1.
          Solving linear equations simultaneously, MaxMat=       0.
          There are    81 degrees of freedom in the 1st order CPHF.  IDoFFX=6 NUNeed=     0.
     75 vectors produced by pass  0 Test12= 1.95D-15 1.23D-09 XBig12= 5.18D-02 8.27D-02.
 AX will form    75 AO Fock derivatives at one time.
     75 vectors produced by pass  1 Test12= 1.95D-15 1.23D-09 XBig12= 6.02D-04 8.54D-03.
     75 vectors produced by pass  2 Test12= 1.95D-15 1.23D-09 XBig12= 8.56D-06 6.06D-04.
     75 vectors produced by pass  3 Test12= 1.95D-15 1.23D-09 XBig12= 4.59D-08 3.02D-05.
     75 vectors produced by pass  4 Test12= 1.95D-15 1.23D-09 XBig12= 2.27D-10 3.04D-06.
     75 vectors produced by pass  5 Test12= 1.95D-15 1.23D-09 XBig12= 7.62D-13 1.31D-07.
     26 vectors produced by pass  6 Test12= 1.95D-15 1.23D-09 XBig12= 2.04D-15 6.18D-09.
 InvSVY:  IOpt=1 It=  1 EMax= 2.22D-16
 Solved reduced A of dimension   476 with    81 vectors.
 End of Minotr F.D. properties file   721 does not exist.
 End of Minotr F.D. properties file   722 does not exist.
 End of Minotr F.D. properties file   788 does not exist.
 Leave Link 1002 at Tue Jan 20 11:42:20 2026, MaxMem=  4294967296 cpu:               4.4 elap:               0.3
 (Enter /root/g16/l601.exe)
 Copying SCF densities to generalized density rwf, IOpCl= 0 IROHF=0.

 **********************************************************************

            Population analysis using the SCF density.

 **********************************************************************

 Orbital symmetries:
       Occupied  (A) (A) (A) (A) (A) (A) (A) (A) (A) (A) (A) (A)
                 (A) (A) (A) (A) (A) (A) (A) (A) (A) (A) (A) (A)
                 (A) (A) (A) (A) (A) (A) (A) (A) (A) (A) (A) (A)
                 (A) (A) (A) (A) (A) (A) (A) (A) (A) (A) (A) (A)
                 (A) (A) (A)
       Virtual   (A) (A) (A) (A) (A) (A) (A) (A) (A) (A) (A) (A)
                 (A) (A) (A) (A) (A) (A) (A) (A) (A) (A) (A) (A)
                 (A) (A) (A) (A) (A) (A) (A)
 The electronic state is 1-A.
 Alpha  occ. eigenvalues --  -20.38656 -20.26022 -20.20931 -11.12124 -11.11464
 Alpha  occ. eigenvalues --  -11.11411 -11.10596 -11.07471 -11.07436 -11.06761
 Alpha  occ. eigenvalues --  -11.06384 -11.03630 -11.03110 -11.02696  -1.39039
 Alpha  occ. eigenvalues --   -1.32822  -1.29259  -1.09314  -1.02200  -1.00901
 Alpha  occ. eigenvalues --   -0.97587  -0.93252  -0.85047  -0.83516  -0.79900
 Alpha  occ. eigenvalues --   -0.74772  -0.71027  -0.67895  -0.65631  -0.63967
 Alpha  occ. eigenvalues --   -0.60452  -0.59727  -0.58945  -0.57203  -0.55406
 Alpha  occ. eigenvalues --   -0.54890  -0.53326  -0.53083  -0.50286  -0.49904
 Alpha  occ. eigenvalues --   -0.47270  -0.46210  -0.45821  -0.44687  -0.43370
 Alpha  occ. eigenvalues --   -0.41098  -0.34348  -0.32425  -0.30535  -0.27427
 Alpha  occ. eigenvalues --   -0.20139
 Alpha virt. eigenvalues --    0.17182   0.22648   0.27387   0.39146   0.43547
 Alpha virt. eigenvalues --    0.52256   0.56954   0.57556   0.61101   0.62333
 Alpha virt. eigenvalues --    0.63808   0.65278   0.66899   0.68971   0.70840
 Alpha virt. eigenvalues --    0.71172   0.72729   0.73150   0.75309   0.76002
 Alpha virt. eigenvalues --    0.77279   0.79062   0.81966   0.82875   0.84364
 Alpha virt. eigenvalues --    0.86690   0.92897   0.98821   0.99831   1.04826
 Alpha virt. eigenvalues --    1.11850
          Condensed to atoms (all electrons):
               1          2          3          4          5          6
     1  O    7.914858   0.424569  -0.027092   0.000312  -0.000001   0.000000
     2  C    0.424569   4.720246   0.397212  -0.026477   0.000759  -0.000011
     3  C   -0.027092   0.397212   4.871440   0.559952  -0.024905  -0.000563
     4  C    0.000312  -0.026477   0.559952   4.801000   0.378344  -0.023195
     5  C   -0.000001   0.000759  -0.024905   0.378344   4.731170   0.355970
     6  C    0.000000  -0.000011  -0.000563  -0.023195   0.355970   4.742855
     7  C    0.000000   0.000000   0.000022  -0.002254  -0.020503   0.356492
     8  C   -0.000000   0.000039  -0.000124  -0.002318  -0.001121  -0.022342
     9  O   -0.000000   0.000002   0.000003  -0.000040   0.000005  -0.000393
    10  C    0.000007  -0.000984  -0.001628  -0.007061   0.000237   0.000339
    11  C   -0.000254  -0.005432  -0.000220  -0.001619   0.000006  -0.000006
    12  C   -0.034013   0.395390  -0.037529  -0.005116  -0.000020   0.000002
    13  O    0.000076  -0.017807  -0.003358  -0.018802   0.000246  -0.000001
    14  C    0.000013  -0.007687  -0.033398   0.435074  -0.028691  -0.000301
    15  H   -0.000322  -0.022698   0.389598  -0.024400  -0.003471   0.000045
    16  H   -0.000000   0.000020  -0.003876  -0.022056   0.382061  -0.020118
    17  H    0.000000  -0.000020   0.001117  -0.024272   0.381102  -0.021942
    18  H   -0.000000   0.000000  -0.000001   0.001302  -0.021815   0.381338
    19  H    0.000000  -0.000003   0.000164  -0.001222  -0.022207   0.381325
    20  H   -0.000000   0.000000   0.000003  -0.000038  -0.002157  -0.020916
    21  H    0.000000  -0.000000  -0.000001   0.000018   0.001113  -0.019702
    22  H   -0.000000   0.000007   0.000016   0.000024   0.000003   0.000015
    23  H    0.000087  -0.001896  -0.000236   0.000023   0.000001  -0.000002
    24  H    0.000012   0.000034  -0.000006   0.000016  -0.000000  -0.000000
    25  H   -0.000111  -0.024330   0.001181  -0.000027   0.000001  -0.000000
    26  H    0.000000  -0.000004   0.001169  -0.025557  -0.002641   0.000109
               7          8          9         10         11         12
     1  O    0.000000  -0.000000  -0.000000   0.000007  -0.000254  -0.034013
     2  C    0.000000   0.000039   0.000002  -0.000984  -0.005432   0.395390
     3  C    0.000022  -0.000124   0.000003  -0.001628  -0.000220  -0.037529
     4  C   -0.002254  -0.002318  -0.000040  -0.007061  -0.001619  -0.005116
     5  C   -0.020503  -0.001121   0.000005   0.000237   0.000006  -0.000020
     6  C    0.356492  -0.022342  -0.000393   0.000339  -0.000006   0.000002
     7  C    4.772917   0.359096  -0.026144  -0.031656   0.000670  -0.000002
     8  C    0.359096   4.761711   0.435526   0.397808  -0.027875   0.000308
     9  O   -0.026144   0.435526   7.870269  -0.044377  -0.005282   0.000002
    10  C   -0.031656   0.397808  -0.044377   4.876866   0.503306  -0.009386
    11  C    0.000670  -0.027875  -0.005282   0.503306   4.834112   0.104010
    12  C   -0.000002   0.000308   0.000002  -0.009386   0.104010   4.888628
    13  O    0.000003   0.000019  -0.000000  -0.014490  -0.013786   0.318776
    14  C   -0.000848  -0.006536   0.000036   0.094344  -0.010519  -0.054698
    15  H    0.000002  -0.000004   0.000000  -0.000013  -0.000008   0.001140
    16  H    0.001113  -0.000003  -0.000000  -0.000004  -0.000001  -0.000000
    17  H   -0.001172   0.000003  -0.000000   0.000016  -0.000000  -0.000000
    18  H   -0.021546   0.001272  -0.000009  -0.000018   0.000000  -0.000000
    19  H   -0.023059  -0.003030   0.000265   0.000056  -0.000001  -0.000000
    20  H    0.379047  -0.020625   0.000586  -0.001905   0.000018  -0.000001
    21  H    0.381260  -0.022485  -0.001641   0.001103  -0.000019   0.000000
    22  H   -0.000526  -0.026642   0.000549   0.394874  -0.026570   0.000526
    23  H    0.000045  -0.004848   0.000975  -0.025815   0.404200  -0.006842
    24  H   -0.000015   0.001463   0.000007  -0.025952   0.402889  -0.007644
    25  H    0.000000  -0.000002  -0.000000   0.000048  -0.005451   0.400129
    26  H   -0.000139  -0.000148  -0.000001  -0.005236   0.000029   0.002126
              13         14         15         16         17         18
     1  O    0.000076   0.000013  -0.000322  -0.000000   0.000000  -0.000000
     2  C   -0.017807  -0.007687  -0.022698   0.000020  -0.000020   0.000000
     3  C   -0.003358  -0.033398   0.389598  -0.003876   0.001117  -0.000001
     4  C   -0.018802   0.435074  -0.024400  -0.022056  -0.024272   0.001302
     5  C    0.000246  -0.028691  -0.003471   0.382061   0.381102  -0.021815
     6  C   -0.000001  -0.000301   0.000045  -0.020118  -0.021942   0.381338
     7  C    0.000003  -0.000848   0.000002   0.001113  -0.001172  -0.021546
     8  C    0.000019  -0.006536  -0.000004  -0.000003   0.000003   0.001272
     9  O   -0.000000   0.000036   0.000000  -0.000000  -0.000000  -0.000009
    10  C   -0.014490   0.094344  -0.000013  -0.000004   0.000016  -0.000018
    11  C   -0.013786  -0.010519  -0.000008  -0.000001  -0.000000   0.000000
    12  C    0.318776  -0.054698   0.001140  -0.000000  -0.000000  -0.000000
    13  O    7.655047   0.325629  -0.000001  -0.000006   0.000020   0.000000
    14  C    0.325629   4.830139   0.001417   0.001290  -0.004944  -0.000008
    15  H   -0.000001   0.001417   0.582772   0.000510   0.000039  -0.000004
    16  H   -0.000006   0.001290   0.000510   0.617625  -0.021627  -0.001395
    17  H    0.000020  -0.004944   0.000039  -0.021627   0.634105  -0.003235
    18  H    0.000000  -0.000008  -0.000004  -0.001395  -0.003235   0.630749
    19  H   -0.000000   0.000006   0.000028  -0.003191   0.001815  -0.022110
    20  H    0.000001  -0.000244  -0.000000   0.000009   0.000384  -0.001388
    21  H   -0.000000   0.000014   0.000000  -0.000028  -0.000002  -0.003176
    22  H   -0.000505  -0.007397  -0.000000  -0.000000  -0.000002  -0.000000
    23  H    0.000086   0.000571  -0.000004  -0.000000  -0.000000   0.000000
    24  H   -0.000415   0.000643  -0.000000   0.000000   0.000000  -0.000000
    25  H   -0.016634   0.002077  -0.000028  -0.000000   0.000000   0.000000
    26  H   -0.018263   0.403333  -0.000033   0.000009   0.000131  -0.000008
              19         20         21         22         23         24
     1  O    0.000000  -0.000000   0.000000  -0.000000   0.000087   0.000012
     2  C   -0.000003   0.000000  -0.000000   0.000007  -0.001896   0.000034
     3  C    0.000164   0.000003  -0.000001   0.000016  -0.000236  -0.000006
     4  C   -0.001222  -0.000038   0.000018   0.000024   0.000023   0.000016
     5  C   -0.022207  -0.002157   0.001113   0.000003   0.000001  -0.000000
     6  C    0.381325  -0.020916  -0.019702   0.000015  -0.000002  -0.000000
     7  C   -0.023059   0.379047   0.381260  -0.000526   0.000045  -0.000015
     8  C   -0.003030  -0.020625  -0.022485  -0.026642  -0.004848   0.001463
     9  O    0.000265   0.000586  -0.001641   0.000549   0.000975   0.000007
    10  C    0.000056  -0.001905   0.001103   0.394874  -0.025815  -0.025952
    11  C   -0.000001   0.000018  -0.000019  -0.026570   0.404200   0.402889
    12  C   -0.000000  -0.000001   0.000000   0.000526  -0.006842  -0.007644
    13  O   -0.000000   0.000001  -0.000000  -0.000505   0.000086  -0.000415
    14  C    0.000006  -0.000244   0.000014  -0.007397   0.000571   0.000643
    15  H    0.000028  -0.000000   0.000000  -0.000000  -0.000004  -0.000000
    16  H   -0.003191   0.000009  -0.000028  -0.000000  -0.000000   0.000000
    17  H    0.001815   0.000384  -0.000002  -0.000002  -0.000000   0.000000
    18  H   -0.022110  -0.001388  -0.003176  -0.000000   0.000000  -0.000000
    19  H    0.627897   0.001807  -0.001520  -0.000001  -0.000001   0.000000
    20  H    0.001807   0.631254  -0.021160   0.000083   0.000000  -0.000001
    21  H   -0.001520  -0.021160   0.613100  -0.000010  -0.000002   0.000001
    22  H   -0.000001   0.000083  -0.000010   0.603632   0.002049  -0.005675
    23  H   -0.000001   0.000000  -0.000002   0.002049   0.564946  -0.022270
    24  H    0.000000  -0.000001   0.000001  -0.005675  -0.022270   0.582019
    25  H   -0.000000   0.000000  -0.000000  -0.000006  -0.000004  -0.001528
    26  H   -0.000000  -0.000250   0.000002  -0.001704  -0.000004  -0.000005
              25         26
     1  O   -0.000111   0.000000
     2  C   -0.024330  -0.000004
     3  C    0.001181   0.001169
     4  C   -0.000027  -0.025557
     5  C    0.000001  -0.002641
     6  C   -0.000000   0.000109
     7  C    0.000000  -0.000139
     8  C   -0.000002  -0.000148
     9  O   -0.000000  -0.000001
    10  C    0.000048  -0.005236
    11  C   -0.005451   0.000029
    12  C    0.400129   0.002126
    13  O   -0.016634  -0.018263
    14  C    0.002077   0.403333
    15  H   -0.000028  -0.000033
    16  H   -0.000000   0.000009
    17  H    0.000000   0.000131
    18  H    0.000000  -0.000008
    19  H   -0.000000  -0.000000
    20  H    0.000000  -0.000250
    21  H   -0.000000   0.000002
    22  H   -0.000006  -0.001704
    23  H   -0.000004  -0.000004
    24  H   -0.001528  -0.000005
    25  H    0.534949  -0.000039
    26  H   -0.000039   0.546771
 Mulliken charges:
               1
     1  O   -0.278141
     2  C    0.169071
     3  C   -0.088941
     4  C    0.008389
     5  C   -0.103486
     6  C   -0.089000
     7  C   -0.122802
     8  C    0.180856
     9  O   -0.230338
    10  C   -0.100479
    11  C   -0.152198
    12  C    0.044214
    13  O   -0.195835
    14  C    0.060684
    15  H    0.075438
    16  H    0.069668
    17  H    0.058484
    18  H    0.060051
    19  H    0.062983
    20  H    0.055493
    21  H    0.073135
    22  H    0.067261
    23  H    0.088942
    24  H    0.076425
    25  H    0.109774
    26  H    0.100350
 Sum of Mulliken charges =   0.00000
 Mulliken charges with hydrogens summed into heavy atoms:
               1
     1  O   -0.278141
     2  C    0.169071
     3  C   -0.013502
     4  C    0.008389
     5  C    0.024665
     6  C    0.034035
     7  C    0.005826
     8  C    0.180856
     9  O   -0.230338
    10  C   -0.033218
    11  C    0.013170
    12  C    0.153988
    13  O   -0.195835
    14  C    0.161034
 APT charges:
               1
     1  O    0.095612
     2  C   -0.225527
     3  C   -0.456469
     4  C   -0.234040
     5  C   -0.895753
     6  C   -0.929841
     7  C   -0.924409
     8  C   -0.026783
     9  O   -0.065781
    10  C   -0.583072
    11  C   -0.712889
    12  C   -0.287710
    13  O   -0.271647
    14  C   -0.229118
    15  H    0.542958
    16  H    0.516245
    17  H    0.438288
    18  H    0.705290
    19  H    0.267866
    20  H    0.331040
    21  H    0.649747
    22  H    0.457041
    23  H    0.244718
    24  H    0.553739
    25  H    0.610107
    26  H    0.430389
 Sum of APT charges =   0.00000
 APT charges with hydrogens summed into heavy atoms:
               1
     1  O    0.095612
     2  C   -0.225527
     3  C    0.086489
     4  C   -0.234040
     5  C    0.058780
     6  C    0.043314
     7  C    0.056379
     8  C   -0.026783
     9  O   -0.065781
    10  C   -0.126032
    11  C    0.085568
    12  C    0.322397
    13  O   -0.271647
    14  C    0.201271
 Electronic spatial extent (au):  <R**2>=           2271.9986
 Charge=             -0.0000 electrons
 Dipole moment (field-independent basis, Debye):
    X=             -2.5403    Y=             -1.3647    Z=              3.2657  Tot=              4.3567
 Quadrupole moment (field-independent basis, Debye-Ang):
   XX=            -80.3735   YY=            -75.8465   ZZ=            -80.4692
   XY=              4.7561   XZ=              2.4825   YZ=              2.5722
 Traceless Quadrupole moment (field-independent basis, Debye-Ang):
   XX=             -1.4771   YY=              3.0499   ZZ=             -1.5728
   XY=              4.7561   XZ=              2.4825   YZ=              2.5722
 Octapole moment (field-independent basis, Debye-Ang**2):
  XXX=            -15.7169  YYY=             -0.8135  ZZZ=              2.2721  XYY=              8.5190
  XXY=              8.3076  XXZ=             21.3471  XZZ=             -7.7710  YZZ=             -2.5636
  YYZ=              3.5021  XYZ=             -6.5428
 Hexadecapole moment (field-independent basis, Debye-Ang**3):
 XXXX=          -1520.5329 YYYY=           -796.6699 ZZZZ=           -436.6194 XXXY=              7.4050
 XXXZ=             68.8223 YYYX=             -8.4131 YYYZ=             13.9724 ZZZX=             -3.0596
 ZZZY=             -4.6364 XXYY=           -372.5290 XXZZ=           -360.5398 YYZZ=           -207.8917
 XXYZ=             -5.0968 YYXZ=             -6.6312 ZZXY=              7.9908
 N-N= 9.300922532666D+02 E-N=-3.359550263753D+03  KE= 6.345221443855D+02
  Exact polarizability:   0.000   0.000   0.000   0.000   0.000   0.000
 Approx polarizability:  85.744  -0.617  64.883 -19.358  -2.527  72.364
 No NMR shielding tensors so no spin-rotation constants.
 Leave Link  601 at Tue Jan 20 11:42:20 2026, MaxMem=  4294967296 cpu:               1.2 elap:               0.1
 (Enter /root/g16/l701.exe)
 ... and contract with generalized density number  0.
 Compute integral second derivatives.
 Leave Link  701 at Tue Jan 20 11:42:20 2026, MaxMem=  4294967296 cpu:               0.7 elap:               0.1
 (Enter /root/g16/l702.exe)
 L702 exits ... SP integral derivatives will be done elsewhere.
 Leave Link  702 at Tue Jan 20 11:42:20 2026, MaxMem=  4294967296 cpu:               0.1 elap:               0.0
 (Enter /root/g16/l703.exe)
 Integral derivatives from FoFJK, PRISM(SPDF).
 Compute integral second derivatives, UseDBF=F ICtDFT=           0.
 Calling FoFJK, ICntrl=    100147 FMM=F ISym2X=0 I1Cent= 0 IOpClX= 0 NMat=1 NMatS=1 NMatT=0.
 FoFJK:  IHMeth= 1 ICntrl=  100147 DoSepK=F KAlg= 0 I1Cent=           0 FoldK=F
 IRaf=         0 NMat=       1 IRICut=       1 DoRegI=T DoRafI=F ISym2E= 0 IDoP0=0 IntGTp=1.
 FoFCou: FMM=F IPFlag=           0 FMFlag=      100000 FMFlg1=         800
         NFxFlg=           0 DoJE=F BraDBF=F KetDBF=F FulRan=T
         wScrn=  0.000000 ICntrl=    100147 IOpCl=  0 I1Cent=           0 NGrid=           0
         NMat0=    1 NMatS0=      1 NMatT0=    0 NMatD0=    1 NMtDS0=    0 NMtDT0=    0
 Symmetry not used in FoFCou.
 Leave Link  703 at Tue Jan 20 11:42:21 2026, MaxMem=  4294967296 cpu:               7.1 elap:               0.5
 (Enter /root/g16/l716.exe)
 Dipole        =-9.99446837D-01-5.36913491D-01 1.28481808D+00
 Polarizability= 0.00000000D+00 0.00000000D+00 0.00000000D+00
                 0.00000000D+00 0.00000000D+00 0.00000000D+00
 ***** Axes restored to original set *****
 -------------------------------------------------------------------
 Center     Atomic                   Forces (Hartrees/Bohr)
 Number     Number              X              Y              Z
 -------------------------------------------------------------------
      1        8           0.017491136    0.000239727   -0.037099059
      2        6           0.027336522   -0.037133331   -0.005252299
      3        6          -0.032468188    0.002013763    0.005093655
      4        6           0.032081781   -0.027483984   -0.002276877
      5        6          -0.019211046   -0.022998632    0.008843486
      6        6          -0.016630740   -0.008182450   -0.016178869
      7        6          -0.015619605   -0.005525352    0.016427069
      8        6          -0.037556828    0.015491407   -0.034613138
      9        8          -0.019582636   -0.000861529   -0.051724812
     10        6           0.076794171   -0.032630400    0.054667573
     11        6          -0.013714884   -0.065034798    0.066336679
     12        6          -0.171160787    0.013662880    0.018932932
     13        8           0.012727337   -0.004145124    0.019318254
     14        6           0.077671748    0.071375466   -0.107652408
     15        1          -0.003385409    0.012355231    0.002867392
     16        1          -0.001361613    0.009566045    0.004807349
     17        1           0.002993878    0.000969163   -0.012302301
     18        1           0.009621758    0.003679647   -0.001350080
     19        1          -0.001925850   -0.000232743    0.011229896
     20        1           0.001099315    0.000581252   -0.012471624
     21        1           0.007190802   -0.005692865    0.005389231
     22        1          -0.008814997    0.013851298    0.029411396
     23        1           0.009169295    0.002440171   -0.070743132
     24        1           0.028664845    0.035772395    0.014994839
     25        1           0.077306274    0.032461505    0.023667053
     26        1          -0.038716279   -0.004538740    0.069677795
 -------------------------------------------------------------------
 Cartesian Forces:  Max     0.171160787 RMS     0.037570631
 FormGI is forming the generalized inverse of G from B-inverse, IUseBI=4.
 GSVD:  received Info=                   1 from GESDD.
 Leave Link  716 at Tue Jan 20 11:42:21 2026, MaxMem=  4294967296 cpu:               0.3 elap:               0.0
 (Enter /root/g16/l103.exe)

 GradGradGradGradGradGradGradGradGradGradGradGradGradGradGradGradGradGrad
 Berny optimization.
 Red2BG is reusing G-inverse.
 Internal  Forces:  Max     0.243857433 RMS     0.050250407
 Search for a saddle point.
 Step number   1 out of a maximum of  137
 All quantities printed in internal units (Hartrees-Bohrs-Radians)
 Swapping is turned off.
 Second derivative matrix not updated -- analytic derivatives used.
 ITU=  0
     Eigenvalues ---   -3.59382   0.00054   0.00225   0.00571   0.00697
     Eigenvalues ---    0.00884   0.01425   0.01955   0.02581   0.02947
     Eigenvalues ---    0.03403   0.03657   0.03964   0.04117   0.04481
     Eigenvalues ---    0.05029   0.05373   0.05696   0.05924   0.07515
     Eigenvalues ---    0.08453   0.10737   0.11868   0.12331   0.12881
     Eigenvalues ---    0.13303   0.13538   0.13630   0.14178   0.14912
     Eigenvalues ---    0.15076   0.15658   0.17732   0.17966   0.19219
     Eigenvalues ---    0.20127   0.21054   0.22660   0.25771   0.27014
     Eigenvalues ---    0.28531   0.33328   0.33580   0.36859   0.39591
     Eigenvalues ---    0.40336   0.40877   0.43754   0.43890   0.44052
     Eigenvalues ---    0.44152   0.44952   0.45032   0.45116   0.45302
     Eigenvalues ---    0.46176   0.47903   0.52538   0.53385   0.54684
     Eigenvalues ---    0.56709   0.61356   0.63163   0.67877   0.68998
     Eigenvalues ---    0.69649   0.70585   1.10985   1.19608   1.28938
     Eigenvalues ---    1.44613   3.95655
 Eigenvectors required to have negative eigenvalues:
                          A16       A10       R19       A22       A17
   1                   -0.43464  -0.41033   0.29934  -0.27954   0.18424
                          D32       A40       A29       A13       A26
   1                   -0.15687  -0.14699  -0.14377   0.14034   0.13673
 RFO step:  Lambda0=6.212421102D-02 Lambda=-1.11334381D-01.
 Linear search not attempted -- option 19 set.
 Maximum step size (   0.300) exceeded in Quadratic search.
    -- Step size scaled by   0.819
 Iteration  1 RMS(Cart)=  0.06078381 RMS(Int)=  0.00140621
 Iteration  2 RMS(Cart)=  0.00218993 RMS(Int)=  0.00033145
 Iteration  3 RMS(Cart)=  0.00000236 RMS(Int)=  0.00033144
 Iteration  4 RMS(Cart)=  0.00000000 RMS(Int)=  0.00033144
 ITry= 1 IFail=0 DXMaxC= 2.28D-01 DCOld= 1.00D+10 DXMaxT= 3.00D-01 DXLimC= 3.00D+00 Rises=F
 Variable       Old X    -DE/DX   Delta X   Delta X   Delta X     New X
                                 (Linear)    (Quad)   (Total)
    R1        2.30558   0.03807   0.00000   0.02156   0.02156   2.32714
    R2        2.78523   0.01419   0.00000   0.01442   0.01464   2.79987
    R3        2.73752   0.05414   0.00000   0.04149   0.04170   2.77922
    R4        2.55496  -0.02621   0.00000  -0.00326  -0.00319   2.55176
    R5        2.06645  -0.01078   0.00000  -0.01450  -0.01450   2.05195
    R6        2.83312   0.02565   0.00000   0.02977   0.02977   2.86289
    R7        2.72814   0.02422   0.00000  -0.01940  -0.01963   2.70851
    R8        2.91817  -0.04362   0.00000   0.01065   0.01065   2.92881
    R9        2.07886  -0.01078   0.00000  -0.01572  -0.01572   2.06314
   R10        2.08449  -0.01262   0.00000  -0.01902  -0.01902   2.06546
   R11        2.91542  -0.03568   0.00000   0.01012   0.01012   2.92554
   R12        2.07994  -0.01034   0.00000  -0.01517  -0.01517   2.06477
   R13        2.08222  -0.01139   0.00000  -0.01674  -0.01674   2.06548
   R14        2.87328   0.00926   0.00000   0.03498   0.03498   2.90826
   R15        2.08218  -0.01250   0.00000  -0.01846  -0.01846   2.06372
   R16        2.07774  -0.01045   0.00000  -0.01456  -0.01456   2.06318
   R17        2.29441   0.04548   0.00000   0.01540   0.01540   2.30981
   R18        2.69053   0.11528   0.00000   0.10321   0.10321   2.79374
   R19        2.64678   0.00973   0.00000  -0.09612  -0.09612   2.55066
   R20        1.98376   0.03366   0.00000   0.03957   0.03957   2.02333
   R21        1.91893   0.07039   0.00000   0.07460   0.07460   1.99353
   R22        1.95422   0.04732   0.00000   0.05400   0.05400   2.00822
   R23        2.61331  -0.03734   0.00000  -0.08573  -0.08571   2.52760
   R24        1.90866   0.08435   0.00000   0.08481   0.08481   1.99348
   R25        2.59985  -0.04170   0.00000  -0.07418  -0.07449   2.52536
   R26        1.91648   0.07766   0.00000   0.07865   0.07865   1.99513
    A1        2.15899  -0.00000   0.00000   0.01997   0.01980   2.17879
    A2        2.08594   0.01885   0.00000   0.04306   0.04284   2.12879
    A3        2.02680  -0.01620   0.00000  -0.05722  -0.05750   1.96929
    A4        2.09453  -0.01584   0.00000   0.01759   0.01734   2.11186
    A5        2.05309   0.00760   0.00000  -0.00227  -0.00217   2.05092
    A6        2.13320   0.00733   0.00000  -0.01435  -0.01429   2.11891
    A7        2.17078   0.02443   0.00000  -0.00272  -0.00248   2.16829
    A8        2.07234  -0.00047   0.00000  -0.00098  -0.00162   2.07071
    A9        2.03338  -0.02016   0.00000   0.00559   0.00588   2.03926
   A10        1.95770  -0.23989   0.00000   0.01473   0.01472   1.97242
   A11        1.91991   0.07955   0.00000   0.00090   0.00094   1.92085
   A12        1.90475   0.06551   0.00000  -0.00767  -0.00775   1.89701
   A13        1.89925   0.07704   0.00000  -0.01289  -0.01288   1.88637
   A14        1.90146   0.05638   0.00000   0.00609   0.00609   1.90754
   A15        1.87904  -0.03127   0.00000  -0.00170  -0.00170   1.87734
   A16        2.00142  -0.24386   0.00000   0.01648   0.01647   2.01788
   A17        1.89380   0.09802   0.00000  -0.01771  -0.01771   1.87610
   A18        1.90659   0.04593   0.00000   0.00660   0.00660   1.91319
   A19        1.89887   0.07958   0.00000   0.00299   0.00307   1.90193
   A20        1.89188   0.06758   0.00000  -0.00888  -0.00897   1.88291
   A21        1.86674  -0.03605   0.00000  -0.00042  -0.00041   1.86633
   A22        1.93461  -0.16505   0.00000   0.02380   0.02373   1.95835
   A23        1.92513   0.03165   0.00000   0.00054   0.00035   1.92548
   A24        1.90144   0.05862   0.00000  -0.01228  -0.01218   1.88926
   A25        1.93563   0.02540   0.00000   0.00301   0.00283   1.93846
   A26        1.87342   0.07699   0.00000  -0.01370  -0.01359   1.85983
   A27        1.89208  -0.02261   0.00000  -0.00267  -0.00270   1.88938
   A28        2.11232   0.02106   0.00000  -0.01491  -0.01505   2.09728
   A29        2.18666  -0.10584   0.00000  -0.04640  -0.04650   2.14015
   A30        1.97654   0.08830   0.00000   0.06469   0.06462   2.04116
   A31        2.09031   0.02655   0.00000   0.01108   0.01058   2.10090
   A32        2.03807  -0.01250   0.00000  -0.00510  -0.00573   2.03234
   A33        2.03453  -0.00269   0.00000   0.02044   0.02001   2.05454
   A34        2.06644   0.00006   0.00000   0.02530   0.02379   2.09024
   A35        2.03799   0.00652   0.00000   0.04623   0.04473   2.08272
   A36        2.09962  -0.00968   0.00000  -0.03680  -0.03839   2.06123
   A37        2.03384   0.02630   0.00000   0.04986   0.04949   2.08333
   A38        2.12898  -0.01070   0.00000   0.00051   0.00077   2.12975
   A39        2.07194  -0.02250   0.00000  -0.04900  -0.04890   2.02304
   A40        2.07172  -0.04050   0.00000   0.02042   0.01942   2.09114
   A41        2.04800   0.03540   0.00000   0.02048   0.01953   2.06753
   A42        2.14906  -0.01637   0.00000   0.00887   0.00935   2.15841
   A43        2.04441  -0.01975   0.00000  -0.02868  -0.02820   2.01621
    D1       -3.03668   0.01259   0.00000  -0.00162  -0.00150  -3.03818
    D2        0.03274  -0.00093   0.00000   0.01253   0.01271   0.04544
    D3        0.26816  -0.00781   0.00000  -0.04622  -0.04582   0.22234
    D4       -2.94561  -0.02133   0.00000  -0.03206  -0.03162  -2.97722
    D5       -2.77636   0.00726   0.00000  -0.04758  -0.04743  -2.82379
    D6        0.03142  -0.01969   0.00000  -0.05189  -0.05175  -0.02034
    D7        0.20922   0.02506   0.00000  -0.00674  -0.00647   0.20275
    D8        3.01700  -0.00189   0.00000  -0.01105  -0.01079   3.00621
    D9        2.95818  -0.03548   0.00000   0.02628   0.02648   2.98466
   D10       -0.31202  -0.00067   0.00000   0.04481   0.04507  -0.26695
   D11       -0.10782  -0.02127   0.00000   0.01086   0.01113  -0.09669
   D12        2.90516   0.01354   0.00000   0.02939   0.02972   2.93488
   D13       -1.69673  -0.00194   0.00000   0.03491   0.03491  -1.66182
   D14        0.41975  -0.00992   0.00000   0.02904   0.02909   0.44884
   D15        2.47762   0.03769   0.00000   0.02293   0.02299   2.50061
   D16        1.57085  -0.03727   0.00000   0.01718   0.01712   1.58797
   D17       -2.59585  -0.04525   0.00000   0.01132   0.01129  -2.58455
   D18       -0.53797   0.00236   0.00000   0.00521   0.00520  -0.53278
   D19       -0.12316  -0.00819   0.00000   0.00626   0.00637  -0.11678
   D20       -2.94925  -0.00255   0.00000   0.00881   0.00876  -2.94049
   D21        2.89988   0.02706   0.00000   0.02277   0.02302   2.92290
   D22        0.07378   0.03270   0.00000   0.02532   0.02541   0.09920
   D23       -0.88586   0.03515   0.00000   0.01048   0.01037  -0.87549
   D24       -3.01254   0.02452   0.00000   0.00868   0.00866  -3.00388
   D25        1.24139  -0.01192   0.00000   0.01540   0.01539   1.25678
   D26       -3.01418   0.03858   0.00000   0.00862   0.00857  -3.00561
   D27        1.14233   0.02796   0.00000   0.00682   0.00686   1.14919
   D28       -0.88693  -0.00849   0.00000   0.01354   0.01359  -0.87334
   D29        1.22487   0.00132   0.00000   0.01447   0.01444   1.23931
   D30       -0.90181  -0.00930   0.00000   0.01267   0.01273  -0.88908
   D31       -2.93107  -0.04575   0.00000   0.01939   0.01946  -2.91161
   D32        1.22693  -0.07800   0.00000   0.03603   0.03605   1.26298
   D33       -0.92376  -0.01829   0.00000   0.01536   0.01531  -0.90845
   D34       -2.99859  -0.04540   0.00000   0.02581   0.02575  -2.97285
   D35       -2.93234  -0.05804   0.00000   0.02659   0.02666  -2.90568
   D36        1.20016   0.00167   0.00000   0.00592   0.00592   1.20608
   D37       -0.87468  -0.02544   0.00000   0.01637   0.01636  -0.85832
   D38       -0.90831  -0.02158   0.00000   0.02290   0.02296  -0.88535
   D39       -3.05899   0.03813   0.00000   0.00222   0.00222  -3.05677
[...]
 7,-0.09330304,0.00192132,0.07043730,0.00041965,-0.00115457,-0.00096797
 ,0.00002600,-0.00072746,-0.00109659,-0.00000425,0.00049342,-0.00020842
 ,0.00019844,-0.00005264,-0.00008551,-0.00003731,0.00001228,0.00006566,
 -0.00004393,-0.00005586,0.00000386,0.00011886,0.00001952,0.00003380,-0
 .00023798,-0.00023188,-0.00012217,-0.00017846,0.00009365,-0.00004186,0
 .00141733,-0.00139873,0.00101783,-0.00457872,0.00345564,-0.00240846,-0
 .00178943,0.00603644,0.04110365,0.08752170,0.00005683,0.00003707,-0.00
 001462,-0.00006334,-0.00013136,-0.00007079,0.00013940,0.00014519,0.000
 12245,-0.00079260,-0.00024814,-0.00063807,-0.00486788,-0.00001200,0.02
 489572,0.00208552,-0.07492922,-0.02545437,0.00722638,-0.00271378,-0.04
 591584,0.00071845,0.00229118,-0.00186292,0.00042174,0.00097709,0.00068
 377,0.00018854,-0.00039001,0.00016502,0.00000582,-0.00003575,0.0000678
 2,-0.00000285,0.00005268,-0.00001869,-0.00003333,0.00004628,0.00003676
 ,0.00015007,0.00016003,-0.00008263,0.00007862,0.00002896,0.00001731,-0
 .00098716,0.00149609,0.00001919,0.00444255,-0.00178934,0.00203590,-0.0
 0173978,0.00246441,0.01956240,-0.00682114,0.07950471,0.00004386,0.0000
 0101,-0.00001534,-0.00012895,0.00002864,0.00000912,0.00009881,-0.00007
 728,0.00001240,0.00074398,-0.00043586,0.00085738,0.00580543,-0.0012888
 7,-0.01493780,0.07118611,-0.02433693,-0.44357540,0.00107581,0.00106317
 ,-0.00487533,0.00009425,0.00118640,0.00008280,-0.00001953,0.00019599,0
 .00051139,0.00018602,0.00008818,-0.00006243,-0.00003110,0.00003278,0.0
 0006808,-0.00002448,-0.00003749,0.00002317,0.00006346,0.00005816,0.000
 04395,0.00001103,-0.00004081,-0.00008599,-0.00001423,-0.00001332,0.000
 07200,0.00067281,-0.00083639,0.00161574,-0.00233458,0.00132700,-0.0000
 0858,-0.00496295,-0.00258964,-0.00053338,-0.07302543,0.02599715,0.4593
 3946,0.00003462,-0.00000916,-0.00013328,0.00005829,0.00009878,0.000323
 56,-0.00000572,0.00005032,0.00001424,-0.00008311,-0.00002261,-0.000162
 87,0.00013033,-0.00040824,0.00062916,0.00028980,0.00075785,0.00145504,
 -0.07882405,0.00391871,0.01181405,0.00369214,0.00645384,0.03523118,-0.
 00650297,-0.00474722,0.00277997,0.00100813,0.00065526,0.00007300,0.000
 41458,0.00005202,-0.00009832,0.00024102,0.00011766,-0.00052232,-0.0006
 2153,-0.00019275,0.00019231,0.00032791,0.00009166,0.00013778,-0.000003
 65,-0.00002063,0.00001121,0.00003254,-0.00006113,0.00000800,0.00011956
 ,-0.00002524,0.00003300,0.00010249,0.00038533,-0.00014325,0.00087149,0
 .00021076,0.00040660,0.07306185,-0.00000887,0.00002947,0.00004720,-0.0
 0002293,-0.00004669,-0.00009826,0.00000173,0.00001785,0.00002556,-0.00
 000577,-0.00029221,0.00010721,-0.00056511,0.00296769,-0.00000924,0.002
 43229,-0.00170050,-0.04664873,0.00341349,-0.07710409,-0.03904846,0.003
 06979,0.00340364,0.02133037,-0.00522651,-0.00224706,0.00205400,0.00026
 353,0.00013297,0.00039500,0.00020425,0.00003134,-0.00016614,-0.0000162
 6,0.00008854,0.00001518,-0.00009957,0.00005872,0.00004017,0.00030587,0
 .00004397,-0.00002184,-0.00001337,-0.00001492,0.00001958,-0.00032065,0
 .00028634,-0.00001658,0.00017406,-0.00011037,0.00032656,0.00025227,0.0
 0158251,0.00088900,-0.00030409,-0.00861564,-0.00043551,-0.00037863,0.0
 7879795,-0.00003556,0.00000570,0.00006857,0.00004089,-0.00000462,-0.00
 010945,-0.00010428,-0.00003482,0.00004062,0.00008374,-0.00005626,-0.00
 002202,-0.00026004,0.00114412,0.00106331,0.00021584,0.00202142,-0.0035
 0108,0.01239260,-0.03663085,-0.45576448,-0.00464089,-0.00326459,-0.010
 03866,0.00190168,0.00092509,0.00136764,-0.00208608,-0.00109950,0.00115
 203,-0.00023344,-0.00014328,0.00004971,-0.00002706,0.00001825,0.000117
 12,0.00002497,0.00004439,-0.00005433,-0.00024121,0.00008676,-0.0000829
 9,-0.00000522,-0.00000313,-0.00001030,-0.00020980,0.00015762,-0.000009
 37,0.00023334,-0.00018888,0.00016538,-0.00022831,0.00017493,0.00043211
 ,-0.00030043,-0.00035671,0.00084147,-0.01303910,0.04146311,0.47279830,
 -0.00004768,0.00002342,0.00006083,0.00007401,-0.00002817,-0.00010326,-
 0.00001095,0.00005989,0.00005562,0.00009318,-0.00031239,0.00002219,0.0
 0077610,-0.00139581,-0.00036060,0.00315934,-0.00353925,0.00048200,-0.3
 3551591,0.13240894,-0.12557705,-0.02546196,0.01180247,-0.01088893,0.00
 415387,-0.00053202,-0.00307971,-0.00137044,-0.00207290,0.00182318,-0.0
 0014266,-0.00055772,-0.00062618,0.00006246,0.00006069,0.00003972,-0.00
 008711,0.00002782,-0.00005649,0.00017067,-0.00005400,0.00013413,-0.000
 00317,-0.00002115,-0.00000096,0.00028213,-0.00008767,0.00017160,0.0000
 1131,0.00003459,-0.00003603,0.00127113,-0.00054808,0.00032428,0.000053
 77,-0.00042756,0.00010074,0.00649268,-0.00281457,0.00702529,0.34635962
 ,0.00005573,0.00007885,-0.00003882,-0.00005465,-0.00013611,0.00002969,
 0.00023946,0.00025071,0.00010930,-0.00112585,-0.00037952,-0.00043926,-
 0.00117710,-0.00682728,-0.00401819,0.03572318,-0.01728388,0.01884467,0
 .12558085,-0.12729874,0.06019776,-0.02093752,0.01074537,-0.00872601,0.
 00125096,-0.00076980,-0.00093126,-0.00196600,-0.00303570,0.00165918,-0
 .00003340,-0.00057387,-0.00075176,0.00018829,0.00018640,-0.00030234,-0
 .00048595,0.00002235,0.00016030,0.00046819,0.00004357,0.00007765,0.000
 00090,-0.00001834,0.00005125,0.00143239,-0.00083530,0.00123648,-0.0000
 1153,0.00019559,-0.00018631,0.00025778,0.00289727,0.00092892,-0.000356
 59,0.00166912,0.00010442,-0.00650362,0.00301097,-0.00426861,-0.1321385
 2,0.13802908,0.00001960,0.00001290,0.00005876,-0.00011884,-0.00010411,
 -0.00020331,0.00004633,0.00001752,0.00001912,-0.00011083,-0.00008580,-
 0.00000491,-0.00051309,-0.00232909,-0.00036872,0.01191501,-0.00712052,
 0.00634324,-0.11944332,0.05793331,-0.13858605,0.01653170,-0.00810172,0
 .00786522,-0.00137659,0.00111064,0.00031117,0.00074910,0.00120391,-0.0
 0083534,0.00003868,0.00026937,0.00059203,-0.00021616,-0.00001559,0.000
 31888,0.00039913,0.00013655,-0.00005778,-0.00038123,0.00004716,-0.0002
 2525,-0.00000207,0.00002756,0.00001314,0.00031791,-0.00017594,0.000473
 47,0.00011070,-0.00014673,0.00007226,-0.00011624,0.00047062,0.00038439
 ,0.00011155,0.00078277,0.00055610,-0.03887611,0.01967370,-0.00896182,0
 .13050426,-0.06368788,0.13209471,-0.00011650,0.00017805,0.00009881,-0.
 00009259,-0.00045002,-0.00023775,-0.00036157,-0.00008233,0.00021823,0.
 00015701,-0.00052825,-0.00081644,-0.00001999,-0.00004146,-0.00006695,0
 .00008519,0.00027232,0.00007443,0.00035943,0.00143225,-0.00034750,0.01
 243271,-0.00655216,-0.02437899,-0.00475350,-0.00171497,-0.00451060,-0.
 11818327,0.01767680,0.12424347,-0.00251371,0.00824480,0.03657916,-0.00
 140975,0.00108369,0.00089579,0.00227960,-0.00054801,0.00030244,-0.0022
 3838,0.00507595,-0.00034579,-0.00001073,0.00007523,-0.00002701,0.00001
 330,-0.00000814,0.00001208,0.00002390,-0.00000813,0.00001268,0.0000017
 0,-0.00005515,0.00001406,-0.00000035,0.00000750,0.00000548,-0.00058418
 ,-0.00058627,-0.00021624,-0.00014395,-0.00019264,0.00018224,0.11752385
 ,0.00058913,-0.00001272,-0.00024059,-0.00105698,0.00007066,-0.00003822
 ,0.00198963,0.00017108,-0.00106356,-0.00059933,0.00227066,0.00296642,-
 0.00012361,0.00007279,-0.00000657,-0.00005534,0.00004458,0.00002930,0.
 00066123,0.00042226,0.00034206,0.00933513,-0.00022113,-0.00664379,-0.0
 0225606,0.00058283,-0.00239850,0.02508479,-0.06654276,-0.10491367,-0.0
 1443064,0.00958894,0.01635931,0.00272300,-0.00470784,0.00107058,-0.002
 35657,0.00225741,-0.00223059,0.00444201,-0.01332469,0.00038058,0.00009
 388,-0.00008440,0.00011774,0.00005315,0.00002021,0.00003130,-0.0000089
 3,-0.00003997,0.00001347,0.00001082,-0.00002382,-0.00000124,0.00001073
 ,0.00005841,0.00000861,-0.00060470,-0.00030487,-0.00007980,0.00006718,
 -0.00000700,0.00015190,-0.02130610,0.06639921,-0.00064561,-0.00002620,
 0.00039684,0.00128449,0.00040358,-0.00004072,-0.00155597,-0.00014643,0
 .00099209,-0.00009183,-0.00140796,-0.00246335,-0.00005229,-0.00010743,
 -0.00002754,0.00007646,0.00028683,0.00012104,0.00059813,0.00148100,0.0
 0076724,0.01376205,0.00102039,-0.01334396,-0.00357186,-0.00223797,-0.0
 0087242,0.12453958,-0.09744382,-0.40243633,-0.00150546,-0.00547559,-0.
 00042013,-0.00075826,0.00318506,-0.00168807,-0.00211026,-0.00106807,0.
 00114512,0.00062198,0.00629729,0.00112192,-0.00005604,-0.00014751,-0.0
 0012204,0.00003454,-0.00001731,0.00001615,0.00003678,-0.00000161,0.000
 02032,0.00002429,-0.00006999,0.00003980,0.00002382,0.00002179,0.000016
 39,-0.00006180,-0.00004071,0.00040031,-0.00006442,-0.00015246,0.000117
 92,-0.13073919,0.09581793,0.41478510,-0.00024064,-0.00054196,0.0004842
 8,0.00051536,0.00048850,-0.00172692,-0.00059658,-0.00029773,0.00010105
 ,0.00037040,-0.00046963,-0.00068684,0.00005886,0.00000922,0.00003778,0
 .00010382,-0.00010385,-0.00008182,0.00051812,0.00000044,0.00021686,-0.
 00042677,0.00426001,-0.00061090,0.00176693,0.00003514,-0.00015620,-0.0
 0506085,0.00278497,0.04090125,-0.09062567,-0.01091029,0.09277915,-0.00
 212599,0.00438832,-0.00303423,0.00193351,0.00053170,0.00049852,-0.0023
 4249,0.00264273,-0.00131207,0.00000096,0.00008847,0.00002438,-0.000031
 31,0.00001393,-0.00001954,-0.00001644,0.00000713,-0.00000880,-0.000010
 35,0.00008854,0.00000631,-0.00001911,-0.00000465,-0.00001406,0.0000753
 4,0.00005878,-0.00002272,0.00010035,0.00013482,-0.00011233,-0.00336350
 ,-0.00754346,0.00224338,0.09025523,0.00051832,0.00054608,-0.00078415,-
 0.00110211,-0.00134519,0.00240060,0.00157142,0.00025548,-0.00067208,-0
 .00019755,0.00165773,0.00226653,-0.00000054,-0.00000994,0.00001937,0.0
 0017750,-0.00000020,-0.00007574,-0.00052329,0.00071724,-0.00019046,0.0
 0246497,-0.00786230,0.00227971,0.00059232,0.00085183,0.00075092,0.0048
 9259,0.01191966,0.00628101,-0.02058969,-0.05514719,-0.03050033,0.00411
 666,-0.00950203,0.00801329,-0.00075402,0.00027494,-0.00260091,0.000788
 93,-0.00589160,0.00259617,0.00010515,-0.00001347,0.00010092,0.00000505
 ,-0.00000537,-0.00000353,0.00000716,0.00001764,-0.00001065,-0.00001077
 ,0.00003828,0.00000186,-0.00001642,-0.00003651,-0.00000565,0.00004154,
 0.00001229,-0.00002113,-0.00010056,-0.00009693,0.00006848,-0.00469479,
 0.00909802,-0.00351565,0.00416750,0.05114196,-0.00015022,0.00009635,-0
 .00048566,0.00072224,-0.00070607,0.00133285,-0.00004220,-0.00010942,0.
 00008430,-0.00012722,-0.00028946,-0.00012746,0.00002929,-0.00002710,-0
 .00002702,-0.00004092,0.00006469,0.00002733,-0.00006952,-0.00009158,-0
 .00007655,0.00022116,0.00248191,0.00034996,-0.00045672,-0.00076005,-0.
 00003680,-0.00528421,-0.00271087,0.00084190,0.10158423,-0.03531289,-0.
 45280542,-0.00072976,0.00234451,-0.00378987,-0.00156449,-0.00078229,0.
 00218650,0.00116193,0.00009588,-0.00017400,-0.00007622,-0.00002348,-0.
 00001459,-0.00001227,-0.00001710,0.00001030,-0.00000858,-0.00000293,-0
 .00000130,-0.00000305,-0.00004105,-0.00000464,0.00000883,-0.00000406,0
 .00000804,0.00003412,-0.00000169,-0.00000975,-0.00002808,-0.00002445,-
 0.00000218,0.00079108,-0.00224546,0.00051213,-0.10569780,0.03332826,0.
 45916164,-0.00040505,0.00012582,0.00058308,-0.00023880,-0.00098181,-0.
 00139044,-0.00024245,-0.00051994,0.00003578,0.00041762,-0.00051610,-0.
 00091008,-0.00009672,-0.00001170,-0.00006471,-0.00019641,0.00013088,0.
 00008154,-0.00106921,0.00026583,-0.00147228,-0.00219723,-0.00709521,0.
 00619987,0.00110499,0.00115370,0.00015630,-0.01549437,-0.02325010,-0.0
 2366474,-0.20474909,-0.14518916,-0.13035644,-0.00203874,0.00850238,0.0
 0150851,0.00212609,-0.00040708,0.00048643,-0.00220724,0.00325812,-0.00
 107544,-0.00003318,0.00015689,-0.00001353,0.00004386,-0.00000254,0.000
 00880,0.00002984,0.00000742,0.00000419,0.00003921,-0.00012316,-0.00000
 836,0.00000344,-0.00002860,0.00001397,0.00006047,0.00000731,-0.0000564
 6,-0.00027964,-0.00032266,0.00020172,0.00059899,0.00528573,-0.00165891
 ,0.00882449,0.00862639,0.00996738,0.21552366,0.00060256,-0.00000715,-0
 .00047053,-0.00047848,0.00071546,0.00083547,0.00096124,0.00061590,-0.0
 0023900,-0.00031874,0.00122427,0.00200574,0.00004082,0.00002718,0.0000
 6504,-0.00013633,-0.00003746,0.00006123,0.00096320,-0.00089725,0.00028
 960,-0.00421406,0.00929335,-0.00363210,0.00015625,-0.00108782,0.000199
 48,0.00525224,0.00980632,-0.00940587,-0.15985866,-0.17744221,-0.136502
 12,0.00329680,-0.01582372,0.00124468,0.00065364,0.00325769,-0.00411866
 ,-0.00047458,-0.00486211,0.00076521,0.00007864,-0.00006361,0.00002573,
 -0.00000648,0.00000903,0.00000146,-0.00001945,-0.00001008,-0.00000436,
 0.00001215,0.00000351,-0.00000522,0.00000126,0.00005349,-0.00000558,-0
 .00003979,-0.00000697,0.00003510,0.00016334,0.00018335,-0.00008623,0.0
 0305615,-0.00631129,0.00322208,0.00034707,0.00312582,0.00499592,0.1504
 0348,0.17737360,-0.00041447,-0.00019402,0.00072728,0.00058162,-0.00002
 772,-0.00139181,-0.00086500,-0.00045854,0.00044217,0.00038405,-0.00074
 433,-0.00152686,-0.00001215,0.00002336,0.00000952,0.00019774,-0.000096
 60,-0.00009269,0.00016789,0.00055913,0.00046448,0.00245009,-0.00316524
 ,-0.00170175,-0.00052092,0.00036932,0.00093744,0.01396443,0.00752967,0
 .01603497,-0.13049446,-0.13694093,-0.21653280,-0.00143606,0.00586743,0
 .00087457,0.00035141,-0.00036104,0.00060253,-0.00023696,0.00297926,-0.
 00035192,-0.00003550,0.00004377,-0.00006254,-0.00000925,0.00001422,-0.
 00001353,0.00000152,-0.00000164,0.00000510,-0.00002466,0.00008867,0.00
 001493,-0.00000445,-0.00000803,-0.00000202,-0.00002098,0.00000616,0.00
 003782,0.00004972,0.00004860,-0.00002095,-0.00180277,0.00278972,0.0005
 4912,-0.02382009,-0.01939353,-0.00704328,0.14132282,0.14102315,0.20774
 972,-0.00106194,-0.00093629,-0.00140054,0.00952621,0.00965914,0.008459
 32,-0.00095622,-0.00170661,0.00417974,-0.00132403,-0.00215911,-0.00417
 349,-0.00024387,0.00020409,-0.00034839,-0.00014460,-0.00002147,0.00001
 370,-0.00001631,-0.00000854,-0.00002870,0.00026827,0.00007975,-0.00006
 750,-0.00009556,-0.00003421,0.00002813,0.00084343,0.00136321,-0.000720
 77,-0.00416078,0.00102181,-0.00039127,-0.37104364,-0.16329161,-0.07769
 442,-0.03116707,-0.00397376,-0.00161429,0.01172427,0.00015380,0.005123
 12,-0.00073044,0.00062048,-0.00086801,-0.00000060,0.00000057,0.0000290
 2,0.00006432,-0.00001897,0.00000642,0.00001097,-0.00000937,-0.00001374
 ,-0.00000060,-0.00000401,0.00000220,-0.00004228,0.00001092,0.00001086,
 0.00000822,-0.00001831,0.00003000,0.00008112,-0.00012383,-0.00000774,0
 .00024095,-0.00022378,-0.00005382,0.00034154,-0.00057052,0.00019175,0.
 38844553,-0.00192100,-0.00107257,0.00378818,-0.00976821,0.00087210,-0.
 00271263,-0.00687309,0.00076774,-0.00277773,-0.00006247,-0.00194724,-0
 .00876441,0.00034681,-0.00072314,0.00058102,0.00005436,0.00026054,0.00
 001731,-0.00007290,0.00004369,-0.00004376,0.00086852,0.00086651,0.0003
 3675,-0.00016733,-0.00024650,-0.00019124,-0.00263753,-0.00275261,0.001
 67881,0.00621150,-0.00041459,0.00082848,-0.14307265,-0.10043231,-0.051
 49192,-0.01729043,-0.01716990,0.01270877,0.01316829,0.01547195,0.00113
 108,0.00037366,-0.00300817,0.00132752,0.00001144,-0.00001728,0.0000124
 0,-0.00007938,-0.00005587,0.00005305,0.00005892,-0.00008044,0.00005666
 ,0.00002145,-0.00001766,0.00000435,-0.00006191,-0.00000466,-0.00000218
 ,-0.00000729,-0.00004845,0.00002823,0.00007150,0.00024037,-0.00030995,
 0.00003296,0.00008578,-0.00034782,0.00076451,0.00070945,0.00015792,0.1
 6141306,0.10682056,0.00192568,0.00189364,0.00283756,-0.02499079,-0.004
 03331,0.00840076,0.00075212,-0.00524544,-0.00433367,0.00115485,-0.0011
 3580,-0.00119027,-0.00007427,0.00050204,0.00014199,-0.00006038,-0.0001
 7152,0.00005732,0.00003901,-0.00004175,-0.00000770,-0.00022705,-0.0002
 3711,-0.00018411,0.00004843,0.00009616,0.00011186,0.00037852,0.0002155
 5,0.00018779,-0.00071853,-0.00054041,-0.00008544,-0.09235380,-0.056363
 66,-0.09530931,0.04704205,0.02273387,0.00402477,-0.00064928,-0.0017230
 7,-0.00537537,-0.00233277,-0.00009531,-0.00020604,0.00001503,0.0000451
 8,0.00002377,-0.00009962,-0.00005353,0.00001986,-0.00004611,0.00005413
 ,-0.00003532,0.00000974,0.00000841,0.00001528,-0.00000225,0.00001790,0
 .00000975,0.00000795,0.00003190,0.00000920,-0.00004640,0.00008140,0.00
 005128,0.00000169,-0.00009379,0.00004944,0.00008176,-0.00019315,0.0002
 0807,0.06855662,0.04401496,0.08965837,0.00041807,0.00004133,-0.0016620
 3,0.00143279,0.00075676,0.00448956,0.00107451,-0.00291510,-0.00220450,
 0.00759635,0.00229404,-0.00739120,0.00070342,0.00141647,-0.00152870,-0
 .00032214,-0.00039198,0.00005714,-0.00006482,-0.00008148,-0.00016267,0
 .00094031,0.00087155,0.00040834,-0.00020118,-0.00027651,-0.00012320,-0
 .00092554,-0.00116118,-0.00026688,0.00059540,-0.00050974,0.00010360,0.
 00428019,-0.00110996,-0.01619514,-0.04265333,-0.00675031,0.04520485,-0
 .15106633,-0.01613921,0.16461291,0.00055651,-0.00052092,-0.00058734,-0
 .00008632,-0.00001248,0.00016151,-0.00013643,-0.00034886,-0.00032417,-
 0.00008908,0.00003485,-0.00010034,-0.00001531,0.00004070,0.00004475,-0
 .00034574,0.00016830,-0.00022238,-0.00000536,-0.00000820,0.00010886,0.
 00023518,0.00011915,-0.00036586,0.00009539,0.00013804,-0.00017518,0.00
 013395,0.00012827,0.00003468,-0.00056688,-0.00138278,0.00158778,0.1784
 1639,-0.00035458,-0.00017470,0.00152684,-0.00047235,0.00049437,-0.0013
 9643,-0.00750149,-0.00077101,-0.00101176,0.01317694,-0.00228395,-0.025
 36851,0.00269810,-0.00067280,0.00084958,0.00028172,0.00026050,0.000064
 13,0.00000373,0.00010104,0.00009392,-0.00057663,-0.00061478,-0.0003526
 4,0.00006119,0.00019546,0.00011216,-0.00106965,-0.00175752,0.00316449,
 0.00239474,-0.00073031,-0.00031414,-0.00828875,0.00553989,0.00264006,0
 .00146705,-0.00929278,0.01563239,-0.02576609,-0.03381663,0.00309353,0.
 00090151,0.00015821,-0.00063135,-0.00022337,-0.00003141,-0.00002404,-0
 .00030568,-0.00007937,-0.00001789,0.00000822,-0.00002356,0.00003944,0.
 00001623,-0.00006528,0.00000747,0.00024191,-0.00001625,0.00007788,-0.0
 0001066,-0.00000173,-0.00008104,-0.00040581,0.00028305,0.00043270,-0.0
 0020866,0.00016796,0.00009024,-0.00024042,0.00015126,-0.00010876,-0.00
 142645,0.00185267,0.00023269,0.02559926,0.04112769,0.00019062,0.000631
 40,0.00122869,-0.00284186,-0.00239849,-0.00381131,-0.00133291,-0.00381
 217,-0.00218056,0.01432509,0.01031637,-0.00750367,0.00098392,0.0011424
 9,0.00067993,0.00005119,-0.00019265,0.00004125,0.00010883,-0.00003300,
 -0.00000366,-0.00052353,-0.00067203,-0.00039635,0.00013934,0.00020316,
 0.00024643,0.00155097,0.00146099,-0.00126073,-0.00142630,0.00071005,0.
 00029502,-0.00383773,-0.00369255,0.00613387,-0.00447080,0.00554317,0.0
 0890562,0.18060480,-0.00994664,-0.37819893,0.00139824,-0.00003128,-0.0
 0011640,-0.00007707,0.00008490,0.00012037,-0.00014116,-0.00004243,0.00
 011914,-0.00003985,0.00007447,-0.00001648,0.00001901,0.00001026,0.0000
 2347,-0.00008297,0.00007647,0.00002010,0.00002020,0.00004720,0.0000366
 9,0.00010568,-0.00029834,0.00036179,0.00000966,-0.00023950,0.00003413,
 0.00001924,-0.00010706,0.00008242,0.00075180,-0.00008386,0.00092018,-0
 .18550440,0.00124904,0.37423899\\-0.00000932,0.00000705,0.00000365,0.0
 0001398,-0.00003785,-0.00002180,-0.00000252,-0.00002929,0.00000792,0.0
 0001077,-0.00000057,-0.00001818,-0.00000551,0.00003907,0.00001200,0.00
 004133,0.00000812,-0.00004392,-0.00003804,-0.00000904,0.00003934,-0.00
 000417,0.00000414,-0.00000530,0.00000667,0.00000586,-0.00000514,-0.000
 08430,-0.00005342,0.00006179,0.00012653,-0.00000409,-0.00006384,-0.000
 00841,0.00007299,-0.00004877,-0.00001816,-0.00003799,0.00011033,-0.000
 02530,0.00005731,-0.00003424,-0.00000456,0.00000603,0.00000020,0.00000
 369,-0.00000382,0.00001144,-0.00000501,-0.00001798,-0.00000469,-0.0000
 0072,0.00000297,-0.00000514,-0.00001835,-0.00001427,-0.00000015,0.0000
 0799,-0.00000259,-0.00000037,0.00000229,0.00000008,-0.00000381,0.00000
 378,-0.00001465,0.00000981,-0.00000726,0.00002386,-0.00000620,-0.00000
 627,0.00001666,-0.00000610,0.00001602,-0.00001043,-0.00000109,0.000004
 83,-0.00000815,0.00001226\\\@


 IF GOD HAD MEANT MAN TO SEE THE SUN RISE, HE
 WOULD HAVE SCHEDULED IT FOR A LATER HOUR.
 Job cpu time:       0 days  0 hours  0 minutes 44.8 seconds.
 Elapsed time:       0 days  0 hours  0 minutes  3.1 seconds.
 File lengths (MBytes):  RWF=     33 Int=      0 D2E=      0 Chk=      2 Scr=      1
 Normal termination of Gaussian 16 at Tue Jan 20 11:43:18 2026.
