 Entering Gaussian System, Link 0=g16
 Initial command:
 /root/g16/l1.exe "/tmp/gaussian_scratch_3350988/Gau-3350993.inp" -scrdir="/tmp/gaussian_scratch_3350988/"
 Entering Link 1 = /root/g16/l1.exe PID=   3350995.
  
 Copyright (c) 1988,1990,1992,1993,1995,1998,2003,2009,2016,
            Gaussian, Inc.  All Rights Reserved.
  
 This is part of the Gaussian(R) 16 program.  It is based on
 the Gaussian(R) 09 system (copyright 2009, Gaussian, Inc.),
 the Gaussian(R) 03 system (copyright 2003, Gaussian, Inc.),
 the Gaussian(R) 98 system (copyright 1998, Gaussian, Inc.),
 the Gaussian(R) 94 system (copyright 1995, Gaussian, Inc.),
 the Gaussian 92(TM) system (copyright 1992, Gaussian, Inc.),
 the Gaussian 90(TM) system (copyright 1990, Gaussian, Inc.),
 the Gaussian 88(TM) system (copyright 1988, Gaussian, Inc.),
 the Gaussian 86(TM) system (copyright 1986, Carnegie Mellon
 University), and the Gaussian 82(TM) system (copyright 1983,
 Carnegie Mellon University). Gaussian is a federally registered
 trademark of Gaussian, Inc.
  
 This software contains proprietary and confidential information,
 including trade secrets, belonging to Gaussian, Inc.
  
 This software is provided under written license and may be
 used, copied, transmitted, or stored only in accord with that
 written license.
  
 The following legend is applicable only to US Government
 contracts under FAR:
  
                    RESTRICTED RIGHTS LEGEND
  
 Use, reproduction and disclosure by the US Government is
 subject to restrictions as set forth in subparagraphs (a)
 and (c) of the Commercial Computer Software - Restricted
 Rights clause in FAR 52.227-19.
  
 Gaussian, Inc.
 340 Quinnipiac St., Bldg. 40, Wallingford CT 06492
  
  
 ---------------------------------------------------------------
 Warning -- This program may not be used in any manner that
 competes with the business of Gaussian, Inc. or will provide
 assistance to any competitor of Gaussian, Inc.  The licensee
 of this program is prohibited from giving any competitor of
 Gaussian, Inc. access to this program.  By using this program,
 the user acknowledges that Gaussian, Inc. is engaged in the
 business of creating and licensing software in the field of
 computational chemistry and represents and warrants to the
 licensee that it is not a competitor of Gaussian, Inc. and that
 it will not use this program in any manner prohibited above.
 ---------------------------------------------------------------
  

 Cite this work as:
 Gaussian 16, Revision A.03,
 M. J. Frisch, G. W. Trucks, H. B. Schlegel, G. E. Scuseria, 
 M. A. Robb, J. R. Cheeseman, G. Scalmani, V. Barone, 
 G. A. Petersson, H. Nakatsuji, X. Li, M. Caricato, A. V. Marenich, 
 J. Bloino, B. G. Janesko, R. Gomperts, B. Mennucci, H. P. Hratchian, 
 J. V. Ortiz, A. F. Izmaylov, J. L. Sonnenberg, D. Williams-Young, 
 F. Ding, F. Lipparini, F. Egidi, J. Goings, B. Peng, A. Petrone, 
 T. Henderson, D. Ranasinghe, V. G. Zakrzewski, J. Gao, N. Rega, 
 G. Zheng, W. Liang, M. Hada, M. Ehara, K. Toyota, R. Fukuda, 
 J. Hasegawa, M. Ishida, T. Nakajima, Y. Honda, O. Kitao, H. Nakai, 
 T. Vreven, K. Throssell, J. A. Montgomery, Jr., J. E. Peralta, 
 F. Ogliaro, M. J. Bearpark, J. J. Heyd, E. N. Brothers, K. N. Kudin, 
 V. N. Staroverov, T. A. Keith, R. Kobayashi, J. Normand, 
 K. Raghavachari, A. P. Rendell, J. C. Burant, S. S. Iyengar, 
 J. Tomasi, M. Cossi, J. M. Millam, M. Klene, C. Adamo, R. Cammi, 
 J. W. Ochterski, R. L. Martin, K. Morokuma, O. Farkas, 
 J. B. Foresman, and D. J. Fox, Gaussian, Inc., Wallingford CT, 2016.
 
 ******************************************
 Gaussian 16:  ES64L-G16RevA.03 25-Dec-2016
                20-Jan-2026 
 ******************************************
 %chk=reactant_raw_stretched.chk
 %mem=32GB
 %nprocshared=16
 Will use up to   16 processors via shared memory.
 --------------------------------------------------------------------
 #p B3LYP/def2SVP em=GD3BJ SCRF=(PCM,Solvent=Acetone) Opt=CalcFC Freq
 --------------------------------------------------------------------
 1/10=4,18=20,19=15,26=3,38=1/1,3;
 2/9=110,12=2,17=6,18=5,40=1/2;
 3/5=43,7=101,11=2,25=1,30=1,70=2201,71=2,72=19,74=-5,124=41,140=1/1,2,3;
 4//1;
 5/5=2,38=5,53=19/2;
 8/6=4,10=90,11=11/1;
 11/6=1,8=1,9=11,15=111,16=1/1,2,10;
 10/6=1,13=1/2;
 6/7=2,8=2,9=2,10=2,28=1/1;
 7/10=1,18=20,25=1/1,2,3,16;
 1/10=4,18=20,19=15,26=3/3(2);
 2/9=110/2;
 99//99;
 2/9=110/2;
 3/5=43,7=101,11=2,25=1,30=1,70=2205,71=1,72=19,74=-5,124=41/1,2,3;
 4/5=5,16=3,69=1/1;
 5/5=2,38=5,53=19/2;
 7//1,2,3,16;
 1/18=20,19=15,26=3/3(-5);
 2/9=110/2;
 6/7=2,8=2,9=2,10=2,19=2,28=1/1;
 99/9=1/99;
 Leave Link    1 at Tue Jan 20 11:44:34 2026, MaxMem=  4294967296 cpu:               0.5 elap:               0.0
 (Enter /root/g16/l101.exe)
 ----------------------
 reactant_raw_stretched
 ----------------------
 Symbolic Z-matrix:
 Charge =  0 Multiplicity = 1
 O                     2.93259  -0.6784   -1.43446 
 C                     2.04891  -0.58406  -0.59854 
 C                     0.86797  -1.4648   -0.55394 
 C                    -0.12596  -1.21891   0.32903 
 C                    -1.46057  -1.90172   0.31303 
 C                    -2.53781  -1.0587   -0.40356 
 C                    -2.64122   0.40189   0.08236 
 C                    -1.42459   1.20392  -0.35168 
 O                    -1.37927   1.72989  -1.44505 
 C                    -0.47055   2.12371   0.20132 
 C                     0.49884   2.40657  -0.26815 
 C                     2.62877  -0.18788   0.72292 
 O                     1.44675   0.04142   1.64797 
 C                     0.28493  -0.92602   1.74354 
 H                     0.80281  -2.26385  -1.29762 
 H                    -1.3788   -2.87596  -0.19129 
 H                    -1.78372  -2.08829   1.35107 
 H                    -3.5138   -1.54839  -0.26534 
 H                    -2.33242  -1.05133  -1.48609 
 H                    -2.76244   0.43292   1.17707 
 H                    -3.52334   0.86965  -0.37804 
 H                    -0.56572   1.99289   1.41339 
 H                     1.02057   1.79094  -1.08276 
 H                     1.44976   2.63577   0.42131 
 H                     3.06468   0.8562    0.65144 
 H                    -0.49038  -0.25789   2.2413 
 
 ITRead=  0  0  0  0  0  0  0  0  0  0  0  0  0  0  0  0  0  0  0  0
 ITRead=  0  0  0  0  0  0
 MicOpt= -1 -1 -1 -1 -1 -1 -1 -1 -1 -1 -1 -1 -1 -1 -1 -1 -1 -1 -1 -1
 MicOpt= -1 -1 -1 -1 -1 -1
 NAtoms=     26 NQM=       26 NQMF=       0 NMMI=      0 NMMIF=      0
                NMic=       0 NMicF=      0.
                    Isotopes and Nuclear Properties:
 (Nuclear quadrupole moments (NQMom) in fm**2, nuclear magnetic moments (NMagM)
  in nuclear magnetons)

  Atom         1           2           3           4           5           6           7           8           9          10
 IAtWgt=          16          12          12          12          12          12          12          12          16          12
 AtmWgt=  15.9949146  12.0000000  12.0000000  12.0000000  12.0000000  12.0000000  12.0000000  12.0000000  15.9949146  12.0000000
 NucSpn=           0           0           0           0           0           0           0           0           0           0
 AtZEff=  -0.0000000  -0.0000000  -0.0000000  -0.0000000  -0.0000000  -0.0000000  -0.0000000  -0.0000000  -0.0000000  -0.0000000
 NQMom=    0.0000000   0.0000000   0.0000000   0.0000000   0.0000000   0.0000000   0.0000000   0.0000000   0.0000000   0.0000000
 NMagM=    0.0000000   0.0000000   0.0000000   0.0000000   0.0000000   0.0000000   0.0000000   0.0000000   0.0000000   0.0000000
 AtZNuc=   8.0000000   6.0000000   6.0000000   6.0000000   6.0000000   6.0000000   6.0000000   6.0000000   8.0000000   6.0000000

  Atom        11          12          13          14          15          16          17          18          19          20
 IAtWgt=          12          12          16          12           1           1           1           1           1           1
 AtmWgt=  12.0000000  12.0000000  15.9949146  12.0000000   1.0078250   1.0078250   1.0078250   1.0078250   1.0078250   1.0078250
 NucSpn=           0           0           0           0           1           1           1           1           1           1
 AtZEff=  -0.0000000  -0.0000000  -0.0000000  -0.0000000  -0.0000000  -0.0000000  -0.0000000  -0.0000000  -0.0000000  -0.0000000
 NQMom=    0.0000000   0.0000000   0.0000000   0.0000000   0.0000000   0.0000000   0.0000000   0.0000000   0.0000000   0.0000000
 NMagM=    0.0000000   0.0000000   0.0000000   0.0000000   2.7928460   2.7928460   2.7928460   2.7928460   2.7928460   2.7928460
 AtZNuc=   6.0000000   6.0000000   8.0000000   6.0000000   1.0000000   1.0000000   1.0000000   1.0000000   1.0000000   1.0000000

  Atom        21          22          23          24          25          26
 IAtWgt=           1           1           1           1           1           1
 AtmWgt=   1.0078250   1.0078250   1.0078250   1.0078250   1.0078250   1.0078250
 NucSpn=           1           1           1           1           1           1
 AtZEff=  -0.0000000  -0.0000000  -0.0000000  -0.0000000  -0.0000000  -0.0000000
 NQMom=    0.0000000   0.0000000   0.0000000   0.0000000   0.0000000   0.0000000
 NMagM=    2.7928460   2.7928460   2.7928460   2.7928460   2.7928460   2.7928460
 AtZNuc=   1.0000000   1.0000000   1.0000000   1.0000000   1.0000000   1.0000000
 Leave Link  101 at Tue Jan 20 11:44:35 2026, MaxMem=  4294967296 cpu:               5.8 elap:               0.4
 (Enter /root/g16/l103.exe)

 GradGradGradGradGradGradGradGradGradGradGradGradGradGradGradGradGradGrad
 Berny optimization.
 Initialization pass.
                           ----------------------------
                           !    Initial Parameters    !
                           ! (Angstroms and Degrees)  !
 --------------------------                            --------------------------
 ! Name  Definition              Value          Derivative Info.                !
 --------------------------------------------------------------------------------
 ! R1    R(1,2)                  1.2201         calculate D2E/DX2 analytically  !
 ! R2    R(2,3)                  1.4739         calculate D2E/DX2 analytically  !
 ! R3    R(2,12)                 1.4965         calculate D2E/DX2 analytically  !
 ! R4    R(3,4)                  1.352          calculate D2E/DX2 analytically  !
 ! R5    R(3,15)                 1.0935         calculate D2E/DX2 analytically  !
 ! R6    R(4,5)                  1.4992         calculate D2E/DX2 analytically  !
 ! R7    R(4,14)                 1.5018         calculate D2E/DX2 analytically  !
 ! R8    R(5,6)                  1.5442         calculate D2E/DX2 analytically  !
 ! R9    R(5,16)                 1.1001         calculate D2E/DX2 analytically  !
 ! R10   R(5,17)                 1.1031         calculate D2E/DX2 analytically  !
 ! R11   R(6,7)                  1.5428         calculate D2E/DX2 analytically  !
 ! R12   R(6,18)                 1.1007         calculate D2E/DX2 analytically  !
 ! R13   R(6,19)                 1.1019         calculate D2E/DX2 analytically  !
 ! R14   R(7,8)                  1.5205         calculate D2E/DX2 analytically  !
 ! R15   R(7,20)                 1.1018         calculate D2E/DX2 analytically  !
 ! R16   R(7,21)                 1.0995         calculate D2E/DX2 analytically  !
 ! R17   R(8,9)                  1.2141         calculate D2E/DX2 analytically  !
 ! R18   R(8,10)                 1.436          calculate D2E/DX2 analytically  !
 ! R19   R(10,11)                1.1136         calculate D2E/DX2 analytically  !
 ! R20   R(10,22)                1.2228         calculate D2E/DX2 analytically  !
 ! R21   R(11,23)                1.1466         calculate D2E/DX2 analytically  !
 ! R22   R(11,24)                1.1967         calculate D2E/DX2 analytically  !
 ! R23   R(12,13)                1.5184         calculate D2E/DX2 analytically  !
 ! R24   R(12,25)                1.1337         calculate D2E/DX2 analytically  !
 ! R25   R(13,14)                1.5149         calculate D2E/DX2 analytically  !
 ! R26   R(14,26)                1.1381         calculate D2E/DX2 analytically  !
 ! A1    A(1,2,3)              123.7012         calculate D2E/DX2 analytically  !
 ! A2    A(1,2,12)             110.1719         calculate D2E/DX2 analytically  !
 ! A3    A(3,2,12)             116.2288         calculate D2E/DX2 analytically  !
 ! A4    A(2,3,4)              120.0075         calculate D2E/DX2 analytically  !
 ! A5    A(2,3,15)             117.6336         calculate D2E/DX2 analytically  !
 ! A6    A(4,3,15)             122.2235         calculate D2E/DX2 analytically  !
 ! A7    A(3,4,5)              124.3764         calculate D2E/DX2 analytically  !
 ! A8    A(3,4,14)             116.7081         calculate D2E/DX2 analytically  !
 ! A9    A(5,4,14)             110.0246         calculate D2E/DX2 analytically  !
 ! A10   A(4,5,6)              112.1679         calculate D2E/DX2 analytically  !
 ! A11   A(4,5,16)             110.0026         calculate D2E/DX2 analytically  !
 ! A12   A(4,5,17)             109.1344         calculate D2E/DX2 analytically  !
 ! A13   A(6,5,16)             108.8191         calculate D2E/DX2 analytically  !
 ! A14   A(6,5,17)             108.9455         calculate D2E/DX2 analytically  !
 ! A15   A(16,5,17)            107.6613         calculate D2E/DX2 analytically  !
 ! A16   A(5,6,7)              114.6727         calculate D2E/DX2 analytically  !
 ! A17   A(5,6,18)             108.507          calculate D2E/DX2 analytically  !
 ! A18   A(5,6,19)             109.2398         calculate D2E/DX2 analytically  !
 ! A19   A(7,6,18)             108.797          calculate D2E/DX2 analytically  !
 ! A20   A(7,6,19)             108.397          calculate D2E/DX2 analytically  !
 ! A21   A(18,6,19)            106.9564         calculate D2E/DX2 analytically  !
 ! A22   A(6,7,8)              110.8452         calculate D2E/DX2 analytically  !
 ! A23   A(6,7,20)             110.3017         calculate D2E/DX2 analytically  !
 ! A24   A(6,7,21)             108.9447         calculate D2E/DX2 analytically  !
 ! A25   A(8,7,20)             110.9032         calculate D2E/DX2 analytically  !
 ! A26   A(8,7,21)             107.339          calculate D2E/DX2 analytically  !
 ! A27   A(20,7,21)            108.4082         calculate D2E/DX2 analytically  !
 ! A28   A(7,8,9)              121.0273         calculate D2E/DX2 analytically  !
 ! A29   A(7,8,10)             139.4253         calculate D2E/DX2 analytically  !
 ! A30   A(9,8,10)              92.5516         calculate D2E/DX2 analytically  !
 ! A31   A(8,10,11)            125.3578         calculate D2E/DX2 analytically  !
 ! A32   A(8,10,22)            105.1585         calculate D2E/DX2 analytically  !
 ! A33   A(11,10,22)           120.8505         calculate D2E/DX2 analytically  !
 ! A34   A(10,11,23)           124.0017         calculate D2E/DX2 analytically  !
 ! A35   A(10,11,24)           119.8318         calculate D2E/DX2 analytically  !
 ! A36   A(23,11,24)            98.6601         calculate D2E/DX2 analytically  !
 ! A37   A(2,12,13)            106.0402         calculate D2E/DX2 analytically  !
 ! A38   A(2,12,25)            109.7026         calculate D2E/DX2 analytically  !
 ! A39   A(13,12,25)           101.4588         calculate D2E/DX2 analytically  !
 ! A40   A(12,13,14)           122.618          calculate D2E/DX2 analytically  !
 ! A41   A(4,14,13)            105.9596         calculate D2E/DX2 analytically  !
 ! A42   A(4,14,26)            109.8801         calculate D2E/DX2 analytically  !
 ! A43   A(13,14,26)           100.087          calculate D2E/DX2 analytically  !
 ! D1    D(1,2,3,4)           -173.9892         calculate D2E/DX2 analytically  !
 ! D2    D(1,2,3,15)             1.8756         calculate D2E/DX2 analytically  !
 ! D3    D(12,2,3,4)            43.7627         calculate D2E/DX2 analytically  !
 ! D4    D(12,2,3,15)         -140.3724         calculate D2E/DX2 analytically  !
 ! D5    D(1,2,12,13)          174.2962         calculate D2E/DX2 analytically  !
 ! D6    D(1,2,12,25)           65.4807         calculate D2E/DX2 analytically  !
 ! D7    D(3,2,12,13)          -38.567          calculate D2E/DX2 analytically  !
 ! D8    D(3,2,12,25)         -147.3826         calculate D2E/DX2 analytically  !
 ! D9    D(2,3,4,5)            169.4913         calculate D2E/DX2 analytically  !
 ! D10   D(2,3,4,14)           -46.5465         calculate D2E/DX2 analytically  !
 ! D11   D(15,3,4,5)            -6.1778         calculate D2E/DX2 analytically  !
 ! D12   D(15,3,4,14)          137.7843         calculate D2E/DX2 analytically  !
 ! D13   D(3,4,5,6)            -97.2157         calculate D2E/DX2 analytically  !
 ! D14   D(3,4,5,16)            24.0499         calculate D2E/DX2 analytically  !
 ! D15   D(3,4,5,17)           141.9574         calculate D2E/DX2 analytically  !
 ! D16   D(14,4,5,6)           116.7962         calculate D2E/DX2 analytically  !
 ! D17   D(14,4,5,16)         -121.9381         calculate D2E/DX2 analytically  !
 ! D18   D(14,4,5,17)           -4.0306         calculate D2E/DX2 analytically  !
 ! D19   D(3,4,14,13)           44.515          calculate D2E/DX2 analytically  !
 ! D20   D(3,4,14,26)          151.7997         calculate D2E/DX2 analytically  !
 ! D21   D(5,4,14,13)         -166.6036         calculate D2E/DX2 analytically  !
 ! D22   D(5,4,14,26)          -59.3188         calculate D2E/DX2 analytically  !
 ! D23   D(4,5,6,7)            -50.7563         calculate D2E/DX2 analytically  !
 ! D24   D(4,5,6,18)          -172.6059         calculate D2E/DX2 analytically  !
 ! D25   D(4,5,6,19)            71.1262         calculate D2E/DX2 analytically  !
 ! D26   D(16,5,6,7)          -172.6997         calculate D2E/DX2 analytically  !
 ! D27   D(16,5,6,18)           65.4507         calculate D2E/DX2 analytically  !
 ! D28   D(16,5,6,19)          -50.8172         calculate D2E/DX2 analytically  !
 ! D29   D(17,5,6,7)            70.1796         calculate D2E/DX2 analytically  !
 ! D30   D(17,5,6,18)          -51.67           calculate D2E/DX2 analytically  !
 ! D31   D(17,5,6,19)         -167.9379         calculate D2E/DX2 analytically  !
 ! D32   D(5,6,7,8)             70.2978         calculate D2E/DX2 analytically  !
 ! D33   D(5,6,7,20)           -52.9274         calculate D2E/DX2 analytically  !
 ! D34   D(5,6,7,21)          -171.8067         calculate D2E/DX2 analytically  !
 ! D35   D(18,6,7,8)          -168.0106         calculate D2E/DX2 analytically  !
 ! D36   D(18,6,7,20)           68.7642         calculate D2E/DX2 analytically  !
 ! D37   D(18,6,7,21)          -50.1152         calculate D2E/DX2 analytically  !
 ! D38   D(19,6,7,8)           -52.0423         calculate D2E/DX2 analytically  !
 ! D39   D(19,6,7,20)         -175.2675         calculate D2E/DX2 analytically  !
 ! D40   D(19,6,7,21)           65.8531         calculate D2E/DX2 analytically  !
 ! D41   D(6,7,8,9)             85.7443         calculate D2E/DX2 analytically  !
 ! D42   D(6,7,8,10)          -132.7849         calculate D2E/DX2 analytically  !
 ! D43   D(20,7,8,9)          -151.3781         calculate D2E/DX2 analytically  !
 ! D44   D(20,7,8,10)           -9.9073         calculate D2E/DX2 analytically  !
 ! D45   D(21,7,8,9)           -33.1249         calculate D2E/DX2 analytically  !
 ! D46   D(21,7,8,10)          108.3459         calculate D2E/DX2 analytically  !
 ! D47   D(7,8,10,11)          164.5599         calculate D2E/DX2 analytically  !
 ! D48   D(7,8,10,22)           17.03           calculate D2E/DX2 analytically  !
 ! D49   D(9,8,10,11)          -47.7378         calculate D2E/DX2 analytically  !
 ! D50   D(9,8,10,22)          164.7323         calculate D2E/DX2 analytically  !
 ! D51   D(8,10,11,23)         -19.1247         calculate D2E/DX2 analytically  !
 ! D52   D(8,10,11,24)        -145.7221         calculate D2E/DX2 analytically  !
 ! D53   D(22,10,11,23)        123.7483         calculate D2E/DX2 analytically  !
 ! D54   D(22,10,11,24)         -2.849          calculate D2E/DX2 analytically  !
 ! D55   D(2,12,13,14)          46.2786         calculate D2E/DX2 analytically  !
 ! D56   D(25,12,13,14)        160.8741         calculate D2E/DX2 analytically  !
 ! D57   D(12,13,14,4)         -48.3208         calculate D2E/DX2 analytically  !
 ! D58   D(12,13,14,26)       -162.5328         calculate D2E/DX2 analytically  !
 --------------------------------------------------------------------------------
 Trust Radius=3.00D-01 FncErr=1.00D-07 GrdErr=1.00D-06 EigMax=2.50D+02 EigMin=1.00D-04
 Number of steps in this run=    137 maximum allowed number of steps=    156.
 GradGradGradGradGradGradGradGradGradGradGradGradGradGradGradGradGradGrad

 Leave Link  103 at Tue Jan 20 11:44:35 2026, MaxMem=  4294967296 cpu:               0.3 elap:               0.0
 (Enter /root/g16/l202.exe)
                          Input orientation:                          
 ---------------------------------------------------------------------
 Center     Atomic      Atomic             Coordinates (Angstroms)
 Number     Number       Type             X           Y           Z
 ---------------------------------------------------------------------
      1          8           0        2.932586   -0.678398   -1.434459
      2          6           0        2.048914   -0.584063   -0.598536
      3          6           0        0.867965   -1.464799   -0.553941
      4          6           0       -0.125957   -1.218914    0.329026
      5          6           0       -1.460571   -1.901715    0.313034
      6          6           0       -2.537814   -1.058700   -0.403564
      7          6           0       -2.641224    0.401893    0.082356
      8          6           0       -1.424592    1.203923   -0.351683
      9          8           0       -1.379267    1.729894   -1.445052
     10          6           0       -0.470547    2.123711    0.201325
     11          6           0        0.498836    2.406567   -0.268153
     12          6           0        2.628775   -0.187879    0.722916
     13          8           0        1.446745    0.041416    1.647969
     14          6           0        0.284929   -0.926016    1.743535
     15          1           0        0.802805   -2.263851   -1.297617
     16          1           0       -1.378803   -2.875964   -0.191286
     17          1           0       -1.783717   -2.088292    1.351067
     18          1           0       -3.513801   -1.548389   -0.265342
     19          1           0       -2.332420   -1.051329   -1.486092
     20          1           0       -2.762441    0.432922    1.177071
     21          1           0       -3.523336    0.869647   -0.378042
     22          1           0       -0.565718    1.992892    1.413389
     23          1           0        1.020570    1.790943   -1.082761
     24          1           0        1.449755    2.635766    0.421311
     25          1           0        3.064682    0.856201    0.651441
     26          1           0       -0.490378   -0.257887    2.241301
 ---------------------------------------------------------------------
                    Distance matrix (angstroms):
                    1          2          3          4          5
     1  O    0.000000
     2  C    1.220058   0.000000
     3  C    2.378318   1.473881   0.000000
     4  C    3.571655   2.448157   1.352025   0.000000
     5  C    4.883653   3.857934   2.522820   1.499222   0.000000
     6  C    5.579664   4.615341   3.433200   2.525750   1.544228
     7  C    5.876658   4.840777   4.025397   3.002404   2.598800
     8  C    4.868320   3.914470   3.524032   2.831953   3.176182
     9  O    4.938832   4.221778   4.006269   3.662459   4.035599
    10  C    4.702013   3.784112   3.903774   3.362766   4.146888
    11  C    4.098831   3.384636   3.899410   3.727076   4.768474
    12  C    2.233199   1.496474   2.522170   2.967613   4.452863
    13  O    3.496744   2.408447   2.729849   2.408617   3.743033
    14  C    4.143796   2.951927   2.430764   1.501817   2.458677
    15  H    2.658638   2.205264   1.093519   2.144868   2.801466
    16  H    4.996284   4.143417   2.677848   2.141533   1.100084
    17  H    5.656012   4.555515   3.324036   2.132734   1.103062
    18  H    6.609056   5.655505   4.392055   3.455331   2.162201
    19  H    5.278450   4.494684   3.358918   2.862030   2.172586
    20  H    6.363054   5.228401   4.447201   3.224716   2.809262
    21  H    6.722454   5.762973   4.976354   4.050212   3.523213
    22  H    5.242534   4.186268   4.228648   3.418323   4.144817
    23  H    3.142792   2.632987   3.301938   3.516661   4.662620
    24  H    4.077543   3.430215   4.254907   4.165326   5.391702
    25  H    2.592956   2.160691   3.415487   3.819716   5.310229
    26  H    5.040310   3.823489   3.333933   2.170984   2.713238
                    6          7          8          9         10
     6  C    0.000000
     7  C    1.542771   0.000000
     8  C    2.522185   1.520472   0.000000
     9  O    3.194242   2.385183   1.214148   0.000000
    10  C    3.842815   2.773202   1.435977   1.921307   0.000000
    11  C    4.609518   3.741865   2.270001   2.317380   1.113607
    12  C    5.359191   5.341445   4.418332   4.943919   3.901449
    13  O    4.614732   4.392332   3.687086   4.517088   3.178796
    14  C    3.549017   3.617352   3.442244   4.471074   3.500000
    15  H    3.662165   4.568572   4.228658   4.553370   4.808218
    16  H    2.165829   3.523199   4.083295   4.773453   5.096649
    17  H    2.169666   2.923349   3.723843   4.749780   4.559309
    18  H    1.100659   2.164690   3.456511   4.085963   4.792024
    19  H    1.101866   2.160380   2.682759   2.940304   4.049053
    20  H    2.184903   1.101843   2.172872   3.235867   3.010586
    21  H    2.165739   1.099492   2.125362   2.544714   3.350800
    22  H    4.062351   2.934391   2.115565   2.983574   1.222813
    23  H    4.609107   4.086036   2.618756   2.427797   1.995756
    24  H    5.498200   4.673456   3.302963   3.508173   1.999539
    25  H    6.013971   5.752184   4.613106   4.990722   3.782464
    26  H    3.439274   3.118091   3.119809   4.281424   3.135906
                   11         12         13         14         15
    11  C    0.000000
    12  C    3.500000   0.000000
    13  O    3.188102   1.518385   0.000000
    14  C    3.898558   2.660850   1.514884   0.000000
    15  H    4.792180   3.424380   3.795444   3.362529   0.000000
    16  H    5.606832   4.911440   4.458440   3.211516   2.521520
    17  H    5.294873   4.845227   3.880682   2.405039   3.706271
    18  H    5.634087   6.368585   5.549347   4.342037   4.495616
    19  H    4.632109   5.498974   5.029763   4.158932   3.366804
    20  H    4.076748   5.445811   4.253501   3.384385   5.109564
    21  H    4.307211   6.338685   5.430690   4.714699   5.420325
    22  H    2.032729   3.929032   2.813058   3.058206   5.228984
    23  H    1.146641   3.124504   3.270987   3.988858   4.066318
    24  H    1.196720   3.074739   2.869730   3.973838   5.232543
    25  H    3.135738   1.133678   2.067526   3.477930   4.318523
    26  H    3.791466   3.469799   2.047943   1.138099   4.268507
                   16         17         18         19         20
    16  H    0.000000
    17  H    1.778549   0.000000
    18  H    2.515185   2.428469   0.000000
    19  H    2.432119   3.070153   1.770017   0.000000
    20  H    3.838695   2.710110   2.563336   3.079019   0.000000
    21  H    4.320127   3.842590   2.420680   2.517182   1.785516
    22  H    5.190554   4.259515   4.904080   4.560209   2.704615
    23  H    5.322757   5.369917   5.690328   4.414038   4.611099
    24  H    6.225366   5.799699   6.528057   5.615844   4.813137
    25  H    5.863770   5.715460   7.063921   6.110354   5.866073
    26  H    3.682541   2.411561   4.133974   4.232745   2.602321
                   21         22         23         24         25
    21  H    0.000000
    22  H    3.635713   0.000000
    23  H    4.689616   2.964432   0.000000
    24  H    5.337581   2.336587   1.777683   0.000000
    25  H    6.667983   3.879747   2.838942   2.414084   0.000000
    26  H    4.163067   2.399400   4.186891   3.930612   4.050592
                   26
    26  H    0.000000
 Stoichiometry    C11H12O3
 Framework group  C1[X(C11H12O3)]
 Deg. of freedom    72
 Full point group                 C1      NOp   1
 Largest Abelian subgroup         C1      NOp   1
 Largest concise Abelian subgroup C1      NOp   1
                         Standard orientation:                         
 ---------------------------------------------------------------------
 Center     Atomic      Atomic             Coordinates (Angstroms)
 Number     Number       Type             X           Y           Z
 ---------------------------------------------------------------------
      1          8           0        2.933545   -0.014788   -1.584946
      2          6           0        2.081171   -0.186228   -0.729020
      3          6           0        1.030217   -1.215903   -0.816139
      4          6           0        0.050573   -1.262619    0.114498
      5          6           0       -1.181324   -2.110030    0.004985
      6          6           0       -2.389958   -1.314210   -0.534007
      7          6           0       -2.665349    0.014431    0.200172
      8          6           0       -1.585041    1.038272   -0.110502
      9          8           0       -1.655883    1.743229   -1.096489
     10          6           0       -0.738785    1.973442    0.576040
     11          6           0        0.163947    2.462609    0.144865
     12          6           0        2.658600    0.056112    0.630129
     13          8           0        1.496644   -0.039841    1.602828
     14          6           0        0.478268   -1.160128    1.550474
     15          1           0        1.040194   -1.878485   -1.686007
     16          1           0       -0.992556   -2.963937   -0.662394
     17          1           0       -1.432890   -2.512673    1.000646
     18          1           0       -3.285789   -1.949937   -0.464809
     19          1           0       -2.233139   -1.095114   -1.602423
     20          1           0       -2.743381   -0.157666    1.285691
     21          1           0       -3.620250    0.427478   -0.155411
     22          1           0       -0.764643    1.627090    1.748492
     23          1           0        0.727838    2.071889   -0.773911
     24          1           0        1.104324    2.700299    0.845817
     25          1           0        2.948976    1.147127    0.733057
     26          1           0       -0.357038   -0.699356    2.171136
 ---------------------------------------------------------------------
 Rotational constants (GHZ):           0.9664300           0.6276495           0.5167432
 Leave Link  202 at Tue Jan 20 11:44:35 2026, MaxMem=  4294967296 cpu:               0.3 elap:               0.0
 (Enter /root/g16/l301.exe)
 Standard basis: def2SVP (5D, 7F)
 Ernie: Thresh=  0.10000D-02 Tol=  0.10000D-05 Strict=F.
 There are   270 symmetry adapted cartesian basis functions of A   symmetry.
 There are   256 symmetry adapted basis functions of A   symmetry.
   256 basis functions,   434 primitive gaussians,   270 cartesian basis functions
    51 alpha electrons       51 beta electrons
       nuclear repulsion energy       900.8835958481 Hartrees.
 IExCor=  402 DFT=T Ex+Corr=B3LYP ExCW=0 ScaHFX=  0.200000
 ScaDFX=  0.800000  0.720000  1.000000  0.810000 ScalE2=  1.000000  1.000000
 IRadAn=      5 IRanWt=     -1 IRanGd=            0 ICorTp=0 IEmpDi=141
 NAtoms=   26 NActive=   26 NUniq=   26 SFac= 1.00D+00 NAtFMM=   60 NAOKFM=F Big=F
 Integral buffers will be    131072 words long.
 Raffenetti 2 integral format.
 Two-electron integral symmetry is turned on.
 R6Disp:  Grimme-D3(BJ) Dispersion energy=       -0.0549645172 Hartrees.
 Nuclear repulsion after empirical dispersion term =      900.8286313309 Hartrees.
 Force inversion solution in PCM.
 ------------------------------------------------------------------------------
 Polarizable Continuum Model (PCM)
 =================================
 Model                : PCM.
 Atomic radii         : UFF (Universal Force Field).
 Polarization charges : Total charges.
 Charge compensation  : None.
 Solution method      : Matrix inversion.
 Cavity type          : Scaled VdW (van der Waals Surface) (Alpha=1.100).
 Cavity algorithm     : GePol (No added spheres)
                        Default sphere list used, NSphG=   26.
                        Lebedev-Laikov grids with approx.  5.0 points / Ang**2.
                        Smoothing algorithm: York/Karplus (Gamma=1.0000).
                        Polarization charges: spherical gaussians, with
                                              point-specific exponents (IZeta= 3).
                        Self-potential: point-specific (ISelfS= 7).
                        Self-field    : sphere-specific E.n sum rule (ISelfD= 2).
 1st derivatives      : Analytical E(r).r(x)/FMM algorithm (CHGder, D1EAlg=3).
                        Cavity 1st derivative terms included.
 2nd derivatives      : Analytical E(r).r(xy)/FMM algorithm (CHGder, D2EAlg=3).
                        Cavity 2nd derivative terms included.
 Solvent              : Acetone, Eps=  20.493000 Eps(inf)=   1.846337
 ------------------------------------------------------------------------------
 GePol: Number of generator spheres                  =      26
 GePol: Total number of spheres                      =      26
 GePol: Number of exposed spheres                    =      26 (100.00%)
 GePol: Number of points                             =    1842
 GePol: Average weight of points                     =       0.14
 GePol: Minimum weight of points                     =   0.34D-11
 GePol: Maximum weight of points                     =    0.20577
 GePol: Number of points with low weight             =     119
 GePol: Fraction of low-weight points (<1% of avg)   =       6.46%
 GePol: Cavity surface area                          =    248.791 Ang**2
 GePol: Cavity volume                                =    277.248 Ang**3
 Leave Link  301 at Tue Jan 20 11:44:35 2026, MaxMem=  4294967296 cpu:               0.4 elap:               0.0
 (Enter /root/g16/l302.exe)
 NPDir=0 NMtPBC=     1 NCelOv=     1 NCel=       1 NClECP=     1 NCelD=      1
         NCelK=      1 NCelE2=     1 NClLst=     1 CellRange=     0.0.
 One-electron integrals computed using PRISM.
 One-electron integral symmetry used in STVInt
   1 Symmetry operations used in ECPInt.
 ECPInt:  NShTT=    7260 NPrTT=   26324 LenC2=    7114 LenP2D=   19534.
 LDataN:  DoStor=T MaxTD1= 4 Len=   56
 NBasis=   256 RedAO= T EigKep=  7.36D-04  NBF=   256
 NBsUse=   256 1.00D-06 EigRej= -1.00D+00 NBFU=   256
 Precomputing XC quadrature grid using
 IXCGrd= 4 IRadAn=           5 IRanWt=          -1 IRanGd=           0 AccXCQ= 0.00D+00.
 Generated NRdTot=       0 NPtTot=           0 NUsed=           0 NTot=          32
 NSgBfM=   270   269   270   270   270 MxSgAt=    26 MxSgA2=    26.
 Leave Link  302 at Tue Jan 20 11:44:35 2026, MaxMem=  4294967296 cpu:               2.0 elap:               0.1
 (Enter /root/g16/l303.exe)
 DipDrv:  MaxL=1.
 Leave Link  303 at Tue Jan 20 11:44:35 2026, MaxMem=  4294967296 cpu:               0.3 elap:               0.0
 (Enter /root/g16/l401.exe)
 ExpMin= 1.22D-01 ExpMax= 2.27D+03 ExpMxC= 3.41D+02 IAcc=3 IRadAn=         5 AccDes= 0.00D+00
 Harris functional with IExCor=  402 and IRadAn=       5 diagonalized for initial guess.
 HarFok:  IExCor=  402 AccDes= 0.00D+00 IRadAn=         5 IDoV= 1 UseB2=F ITyADJ=14
 ICtDFT=  3500011 ScaDFX=  1.000000  1.000000  1.000000  1.000000
 FoFCou: FMM=F IPFlag=           0 FMFlag=      100000 FMFlg1=           0
         NFxFlg=           0 DoJE=T BraDBF=F KetDBF=T FulRan=T
         wScrn=  0.000000 ICntrl=       500 IOpCl=  0 I1Cent=   200000004 NGrid=           0
         NMat0=    1 NMatS0=      1 NMatT0=    0 NMatD0=    1 NMtDS0=    0 NMtDT0=    0
 Petite list used in FoFCou.
 Harris En= -651.240109220762    
 JPrj=0 DoOrth=F DoCkMO=F.
 Leave Link  401 at Tue Jan 20 11:44:36 2026, MaxMem=  4294967296 cpu:               8.9 elap:               0.6
 (Enter /root/g16/l502.exe)
 Integral symmetry usage will be decided dynamically.
 Closed shell SCF:
 Using DIIS extrapolation, IDIIS=  1040.
 NGot=  4294967296 LenX=  4294814202 LenY=  4294740861
 Requested convergence on RMS density matrix=1.00D-08 within 128 cycles.
 Requested convergence on MAX density matrix=1.00D-06.
 Requested convergence on             energy=1.00D-06.
 No special actions if energy rises.
 Fock matrices will be formed incrementally for  20 cycles.

 Cycle   1  Pass 1  IDiag  1:
 FoFJK:  IHMeth= 1 ICntrl=       0 DoSepK=F KAlg= 0 I1Cent=           0 FoldK=F
 IRaf= 950000000 NMat=       1 IRICut=       1 DoRegI=T DoRafI=F ISym2E= 0 IDoP0=0 IntGTp=1.
 FoFCou: FMM=F IPFlag=           0 FMFlag=      100000 FMFlg1=           0
         NFxFlg=           0 DoJE=F BraDBF=F KetDBF=F FulRan=T
         wScrn=  0.000000 ICntrl=         0 IOpCl=  0 I1Cent=           0 NGrid=           0
         NMat0=    1 NMatS0=      1 NMatT0=    0 NMatD0=    1 NMtDS0=    0 NMtDT0=    0
 Symmetry not used in FoFCou.
 Inv3:  Mode=1 IEnd=    10178892.
 Iteration    1 A*A^-1 deviation from unit magnitude is 3.11D-15 for   1268.
 Iteration    1 A*A^-1 deviation from orthogonality  is 2.44D-15 for   1670   1571.
 Iteration    1 A^-1*A deviation from unit magnitude is 3.33D-15 for   1268.
 Iteration    1 A^-1*A deviation from orthogonality  is 5.17D-12 for   1733   1702.
 E= -650.762916522613    
 DIIS: error= 2.78D-02 at cycle   1 NSaved=   1.
 NSaved= 1 IEnMin= 1 EnMin= -650.762916522613     IErMin= 1 ErrMin= 2.78D-02
 ErrMax= 2.78D-02  0.00D+00 EMaxC= 1.00D-01 BMatC= 4.16D-01 BMatP= 4.16D-01
 IDIUse=3 WtCom= 7.22D-01 WtEn= 2.78D-01
 Coeff-Com:  0.100D+01
 Coeff-En:   0.100D+01
 Coeff:      0.100D+01
 Gap=     0.043 Goal=   None    Shift=    0.000
 GapD=    0.043 DampG=0.250 DampE=0.500 DampFc=0.2500 IDamp=-1.
 Damping current iteration by 2.50D-01
 RMSDP=9.08D-03 MaxDP=3.47D-01              OVMax= 8.52D-01

 Cycle   2  Pass 1  IDiag  1:
 RMSU=  2.25D-03    CP:  9.85D-01
 E= -650.859484253272     Delta-E=       -0.096567730658 Rises=F Damp=T
 DIIS: error= 8.92D-03 at cycle   2 NSaved=   2.
 NSaved= 2 IEnMin= 2 EnMin= -650.859484253272     IErMin= 2 ErrMin= 8.92D-03
 ErrMax= 8.92D-03  0.00D+00 EMaxC= 1.00D-01 BMatC= 7.88D-02 BMatP= 4.16D-01
 IDIUse=3 WtCom= 9.11D-01 WtEn= 8.92D-02
 Coeff-Com: -0.201D+00 0.120D+01
 Coeff-En:   0.250D+00 0.750D+00
 Coeff:     -0.160D+00 0.116D+01
 Gap=    -0.117 Goal=   None    Shift=    0.000
 RMSDP=3.44D-03 MaxDP=8.78D-02 DE=-9.66D-02 OVMax= 7.36D-01

 Cycle   3  Pass 1  IDiag  1:
 RMSU=  3.42D-03    CP:  9.68D-01  1.00D+00
 E= -650.930927780116     Delta-E=       -0.071443526844 Rises=F Damp=F
 DIIS: error= 2.84D-02 at cycle   3 NSaved=   3.
 NSaved= 3 IEnMin= 3 EnMin= -650.930927780116     IErMin= 2 ErrMin= 8.92D-03
 ErrMax= 2.84D-02  0.00D+00 EMaxC= 1.00D-01 BMatC= 2.54D-01 BMatP= 7.88D-02
 IDIUse=2 WtCom= 0.00D+00 WtEn= 1.00D+00
 Coeff-En:   0.000D+00 0.402D+00 0.598D+00
 Coeff:      0.000D+00 0.402D+00 0.598D+00
 Gap=     0.200 Goal=   None    Shift=    0.000
 RMSDP=5.99D-03 MaxDP=3.09D-01 DE=-7.14D-02 OVMax= 9.76D-01

 Cycle   4  Pass 1  IDiag  1:
 RMSU=  2.88D-03    CP:  9.53D-01  2.46D+00 -1.98D-01
 E= -649.698406888386     Delta-E=        1.232520891730 Rises=F Damp=F
 DIIS: error= 7.03D-02 at cycle   4 NSaved=   4.
 NSaved= 4 IEnMin= 3 EnMin= -650.930927780116     IErMin= 2 ErrMin= 8.92D-03
 ErrMax= 7.03D-02  0.00D+00 EMaxC= 1.00D-01 BMatC= 1.04D+00 BMatP= 7.88D-02
 IDIUse=2 WtCom= 0.00D+00 WtEn= 1.00D+00
 EnCoef did     2 forward-backward iterations
 Coeff-En:   0.319D-01 0.000D+00 0.745D+00 0.223D+00
 Coeff:      0.319D-01 0.000D+00 0.745D+00 0.223D+00
 Gap=    -0.048 Goal=   None    Shift=    0.000
 RMSDP=5.24D-03 MaxDP=2.18D-01 DE= 1.23D+00 OVMax= 9.86D-01

 Cycle   5  Pass 1  IDiag  1:
 RMSU=  1.99D-03    CP:  9.83D-01  1.01D+00  3.90D-01 -8.19D-03
 E= -651.136154668603     Delta-E=       -1.437747780217 Rises=F Damp=F
 DIIS: error= 6.99D-03 at cycle   5 NSaved=   5.
 NSaved= 5 IEnMin= 5 EnMin= -651.136154668603     IErMin= 5 ErrMin= 6.99D-03
 ErrMax= 6.99D-03  0.00D+00 EMaxC= 1.00D-01 BMatC= 4.39D-02 BMatP= 7.88D-02
 IDIUse=3 WtCom= 9.30D-01 WtEn= 6.99D-02
 Coeff-Com: -0.203D+00 0.552D+00 0.312D+00 0.731D-02 0.331D+00
 Coeff-En:   0.000D+00 0.000D+00 0.898D-01 0.000D+00 0.910D+00
 Coeff:     -0.189D+00 0.514D+00 0.297D+00 0.680D-02 0.372D+00
 Gap=     0.086 Goal=   None    Shift=    0.000
 RMSDP=1.27D-03 MaxDP=4.14D-02 DE=-1.44D+00 OVMax= 6.30D-02

 Cycle   6  Pass 1  IDiag  1:
 RMSU=  8.19D-04    CP:  9.76D-01  9.10D-01  5.52D-01  3.80D-04  6.25D-01
 E= -651.161143333952     Delta-E=       -0.024988665350 Rises=F Damp=F
 DIIS: error= 6.97D-03 at cycle   6 NSaved=   6.
 NSaved= 6 IEnMin= 6 EnMin= -651.161143333952     IErMin= 6 ErrMin= 6.97D-03
 ErrMax= 6.97D-03  0.00D+00 EMaxC= 1.00D-01 BMatC= 2.02D-02 BMatP= 4.39D-02
 IDIUse=3 WtCom= 9.30D-01 WtEn= 6.97D-02
 Coeff-Com: -0.177D+00 0.302D+00 0.733D-01-0.148D-01 0.300D+00 0.517D+00
 Coeff-En:   0.000D+00 0.000D+00 0.000D+00 0.000D+00 0.295D+00 0.705D+00
 Coeff:     -0.165D+00 0.281D+00 0.682D-01-0.138D-01 0.299D+00 0.530D+00
 Gap=     0.073 Goal=   None    Shift=    0.000
 RMSDP=6.24D-04 MaxDP=2.57D-02 DE=-2.50D-02 OVMax= 3.58D-02

 Cycle   7  Pass 1  IDiag  1:
 RMSU=  2.68D-04    CP:  9.78D-01  1.04D+00  4.89D-01 -4.30D-02  8.02D-01
                    CP:  7.45D-01
 E= -651.177751798213     Delta-E=       -0.016608464261 Rises=F Damp=F
 DIIS: error= 2.37D-03 at cycle   7 NSaved=   7.
 NSaved= 7 IEnMin= 7 EnMin= -651.177751798213     IErMin= 7 ErrMin= 2.37D-03
 ErrMax= 2.37D-03  0.00D+00 EMaxC= 1.00D-01 BMatC= 1.39D-03 BMatP= 2.02D-02
 IDIUse=3 WtCom= 9.76D-01 WtEn= 2.37D-02
 Coeff-Com: -0.875D-01 0.132D+00-0.114D-01-0.516D-02 0.119D+00 0.313D+00
 Coeff-Com:  0.540D+00
 Coeff-En:   0.000D+00 0.000D+00 0.000D+00 0.000D+00 0.000D+00 0.000D+00
 Coeff-En:   0.100D+01
 Coeff:     -0.855D-01 0.129D+00-0.111D-01-0.504D-02 0.116D+00 0.306D+00
 Coeff:      0.551D+00
 Gap=     0.071 Goal=   None    Shift=    0.000
 RMSDP=1.99D-04 MaxDP=5.91D-03 DE=-1.66D-02 OVMax= 1.99D-02

 Cycle   8  Pass 1  IDiag  1:
 RMSU=  1.50D-04    CP:  9.78D-01  1.03D+00  4.76D-01 -4.14D-02  8.24D-01
                    CP:  8.47D-01  7.21D-01
 E= -651.178581057088     Delta-E=       -0.000829258875 Rises=F Damp=F
 DIIS: error= 8.45D-04 at cycle   8 NSaved=   8.
 NSaved= 8 IEnMin= 8 EnMin= -651.178581057088     IErMin= 8 ErrMin= 8.45D-04
 ErrMax= 8.45D-04  0.00D+00 EMaxC= 1.00D-01 BMatC= 4.85D-04 BMatP= 1.39D-03
 IDIUse=3 WtCom= 9.92D-01 WtEn= 8.45D-03
 Coeff-Com: -0.367D-01 0.494D-01-0.313D-01-0.444D-03 0.239D-01 0.135D+00
 Coeff-Com:  0.453D+00 0.407D+00
 Coeff-En:   0.000D+00 0.000D+00 0.000D+00 0.000D+00 0.000D+00 0.000D+00
 Coeff-En:   0.211D+00 0.789D+00
 Coeff:     -0.364D-01 0.490D-01-0.311D-01-0.440D-03 0.237D-01 0.134D+00
 Coeff:      0.451D+00 0.410D+00
 Gap=     0.069 Goal=   None    Shift=    0.000
 RMSDP=1.27D-04 MaxDP=4.98D-03 DE=-8.29D-04 OVMax= 1.47D-02

 Cycle   9  Pass 1  IDiag  1:
 RMSU=  7.43D-05    CP:  9.78D-01  1.04D+00  4.69D-01 -4.46D-02  8.40D-01
                    CP:  8.62D-01  9.27D-01  5.03D-01
 E= -651.179035462764     Delta-E=       -0.000454405676 Rises=F Damp=F
 DIIS: error= 3.12D-04 at cycle   9 NSaved=   9.
 NSaved= 9 IEnMin= 9 EnMin= -651.179035462764     IErMin= 9 ErrMin= 3.12D-04
 ErrMax= 3.12D-04  0.00D+00 EMaxC= 1.00D-01 BMatC= 9.54D-05 BMatP= 4.85D-04
 IDIUse=3 WtCom= 9.97D-01 WtEn= 3.12D-03
 Coeff-Com: -0.855D-02 0.912D-02-0.256D-01 0.109D-02-0.164D-01 0.231D-01
 Coeff-Com:  0.229D+00 0.332D+00 0.456D+00
 Coeff-En:   0.000D+00 0.000D+00 0.000D+00 0.000D+00 0.000D+00 0.000D+00
 Coeff-En:   0.000D+00 0.106D+00 0.894D+00
 Coeff:     -0.853D-02 0.909D-02-0.255D-01 0.109D-02-0.164D-01 0.230D-01
 Coeff:      0.228D+00 0.331D+00 0.458D+00
 Gap=     0.068 Goal=   None    Shift=    0.000
 RMSDP=6.50D-05 MaxDP=2.20D-03 DE=-4.54D-04 OVMax= 7.75D-03

 Cycle  10  Pass 1  IDiag  1:
 RMSU=  3.29D-05    CP:  9.78D-01  1.04D+00  4.64D-01 -4.57D-02  8.48D-01
                    CP:  8.90D-01  9.30D-01  7.30D-01  6.13D-01
 E= -651.179140436261     Delta-E=       -0.000104973496 Rises=F Damp=F
 DIIS: error= 1.39D-04 at cycle  10 NSaved=  10.
 NSaved=10 IEnMin=10 EnMin= -651.179140436261     IErMin=10 ErrMin= 1.39D-04
 ErrMax= 1.39D-04  0.00D+00 EMaxC= 1.00D-01 BMatC= 1.77D-05 BMatP= 9.54D-05
 IDIUse=3 WtCom= 9.99D-01 WtEn= 1.39D-03
 Coeff-Com: -0.639D-03 0.159D-02-0.967D-02 0.341D-03-0.158D-01-0.126D-01
 Coeff-Com:  0.403D-01 0.114D+00 0.339D+00 0.544D+00
 Coeff-En:   0.000D+00 0.000D+00 0.000D+00 0.000D+00 0.000D+00 0.000D+00
 Coeff-En:   0.000D+00 0.000D+00 0.746D-01 0.925D+00
 Coeff:     -0.638D-03 0.159D-02-0.966D-02 0.340D-03-0.158D-01-0.126D-01
 Coeff:      0.403D-01 0.114D+00 0.338D+00 0.545D+00
 Gap=     0.068 Goal=   None    Shift=    0.000
 RMSDP=2.53D-05 MaxDP=9.78D-04 DE=-1.05D-04 OVMax= 2.74D-03

 Cycle  11  Pass 1  IDiag  1:
 RMSU=  1.58D-05    CP:  9.78D-01  1.04D+00  4.63D-01 -4.62D-02  8.51D-01
                    CP:  8.89D-01  9.59D-01  7.03D-01  7.70D-01  7.17D-01
 E= -651.179155742803     Delta-E=       -0.000015306542 Rises=F Damp=F
 DIIS: error= 8.29D-05 at cycle  11 NSaved=  11.
 NSaved=11 IEnMin=11 EnMin= -651.179155742803     IErMin=11 ErrMin= 8.29D-05
 ErrMax= 8.29D-05  0.00D+00 EMaxC= 1.00D-01 BMatC= 3.58D-06 BMatP= 1.77D-05
 IDIUse=1 WtCom= 1.00D+00 WtEn= 0.00D+00
 Coeff-Com: -0.690D-04 0.853D-03-0.827D-03 0.433D-04-0.299D-02-0.627D-02
 Coeff-Com: -0.208D-01-0.851D-02 0.112D+00 0.376D+00 0.551D+00
 Coeff:     -0.690D-04 0.853D-03-0.827D-03 0.433D-04-0.299D-02-0.627D-02
 Coeff:     -0.208D-01-0.851D-02 0.112D+00 0.376D+00 0.551D+00
 Gap=     0.068 Goal=   None    Shift=    0.000
 RMSDP=9.19D-06 MaxDP=3.95D-04 DE=-1.53D-05 OVMax= 8.12D-04

 Cycle  12  Pass 1  IDiag  1:
 RMSU=  5.07D-06    CP:  9.78D-01  1.04D+00  4.62D-01 -4.59D-02  8.51D-01
                    CP:  8.91D-01  9.57D-01  7.21D-01  7.73D-01  8.13D-01
                    CP:  6.35D-01
 E= -651.179158980125     Delta-E=       -0.000003237322 Rises=F Damp=F
 DIIS: error= 1.94D-05 at cycle  12 NSaved=  12.
 NSaved=12 IEnMin=12 EnMin= -651.179158980125     IErMin=12 ErrMin= 1.94D-05
 ErrMax= 1.94D-05  0.00D+00 EMaxC= 1.00D-01 BMatC= 2.09D-07 BMatP= 3.58D-06
 IDIUse=1 WtCom= 1.00D+00 WtEn= 0.00D+00
 Coeff-Com: -0.132D-04 0.390D-03 0.282D-03-0.162D-04-0.422D-03-0.260D-02
 Coeff-Com: -0.156D-01-0.158D-01 0.368D-01 0.170D+00 0.317D+00 0.510D+00
 Coeff:     -0.132D-04 0.390D-03 0.282D-03-0.162D-04-0.422D-03-0.260D-02
 Coeff:     -0.156D-01-0.158D-01 0.368D-01 0.170D+00 0.317D+00 0.510D+00
 Gap=     0.068 Goal=   None    Shift=    0.000
 RMSDP=3.02D-06 MaxDP=8.27D-05 DE=-3.24D-06 OVMax= 2.28D-04

 Cycle  13  Pass 1  IDiag  1:
 RMSU=  2.07D-06    CP:  9.78D-01  1.04D+00  4.62D-01 -4.61D-02  8.52D-01
                    CP:  8.91D-01  9.58D-01  7.21D-01  7.86D-01  8.44D-01
                    CP:  6.91D-01  7.96D-01
 E= -651.179159183239     Delta-E=       -0.000000203115 Rises=F Damp=F
 DIIS: error= 5.36D-06 at cycle  13 NSaved=  13.
 NSaved=13 IEnMin=13 EnMin= -651.179159183239     IErMin=13 ErrMin= 5.36D-06
 ErrMax= 5.36D-06  0.00D+00 EMaxC= 1.00D-01 BMatC= 2.03D-08 BMatP= 2.09D-07
 IDIUse=1 WtCom= 1.00D+00 WtEn= 0.00D+00
 Coeff-Com:  0.416D-04 0.172D-05 0.252D-03-0.800D-05 0.204D-03-0.562D-03
 Coeff-Com: -0.604D-02-0.890D-02 0.453D-02 0.439D-01 0.112D+00 0.281D+00
 Coeff-Com:  0.574D+00
 Coeff:      0.416D-04 0.172D-05 0.252D-03-0.800D-05 0.204D-03-0.562D-03
 Coeff:     -0.604D-02-0.890D-02 0.453D-02 0.439D-01 0.112D+00 0.281D+00
 Coeff:      0.574D+00
 Gap=     0.068 Goal=   None    Shift=    0.000
 RMSDP=9.14D-07 MaxDP=2.66D-05 DE=-2.03D-07 OVMax= 7.97D-05

 Cycle  14  Pass 1  IDiag  1:
 RMSU=  6.39D-07    CP:  9.78D-01  1.04D+00  4.62D-01 -4.61D-02  8.52D-01
                    CP:  8.91D-01  9.58D-01  7.21D-01  7.89D-01  8.48D-01
                    CP:  7.05D-01  8.69D-01  9.28D-01
 E= -651.179159205679     Delta-E=       -0.000000022439 Rises=F Damp=F
 DIIS: error= 2.57D-06 at cycle  14 NSaved=  14.
 NSaved=14 IEnMin=14 EnMin= -651.179159205679     IErMin=14 ErrMin= 2.57D-06
 ErrMax= 2.57D-06  0.00D+00 EMaxC= 1.00D-01 BMatC= 2.85D-09 BMatP= 2.03D-08
 IDIUse=1 WtCom= 1.00D+00 WtEn= 0.00D+00
 Coeff-Com:  0.397D-04-0.560D-04 0.881D-04-0.248D-05 0.929D-04 0.329D-04
 Coeff-Com: -0.646D-03-0.211D-02-0.252D-02-0.118D-02 0.162D-01 0.670D-01
 Coeff-Com:  0.273D+00 0.650D+00
 Coeff:      0.397D-04-0.560D-04 0.881D-04-0.248D-05 0.929D-04 0.329D-04
 Coeff:     -0.646D-03-0.211D-02-0.252D-02-0.118D-02 0.162D-01 0.670D-01
 Coeff:      0.273D+00 0.650D+00
 Gap=     0.068 Goal=   None    Shift=    0.000
 RMSDP=4.32D-07 MaxDP=9.72D-06 DE=-2.24D-08 OVMax= 4.03D-05

 Cycle  15  Pass 1  IDiag  1:
 RMSU=  2.89D-07    CP:  9.78D-01  1.04D+00  4.62D-01 -4.61D-02  8.52D-01
                    CP:  8.91D-01  9.58D-01  7.21D-01  7.90D-01  8.51D-01
                    CP:  7.15D-01  8.99D-01  1.02D+00  1.06D+00
 E= -651.179159209340     Delta-E=       -0.000000003661 Rises=F Damp=F
 DIIS: error= 1.23D-06 at cycle  15 NSaved=  15.
 NSaved=15 IEnMin=15 EnMin= -651.179159209340     IErMin=15 ErrMin= 1.23D-06
 ErrMax= 1.23D-06  0.00D+00 EMaxC= 1.00D-01 BMatC= 5.67D-10 BMatP= 2.85D-09
 IDIUse=1 WtCom= 1.00D+00 WtEn= 0.00D+00
 Coeff-Com:  0.189D-04-0.331D-04-0.272D-05 0.646D-06-0.606D-05 0.114D-03
 Coeff-Com:  0.851D-03 0.740D-03-0.152D-02-0.721D-02-0.978D-02-0.168D-01
 Coeff-Com:  0.794D-02 0.241D+00 0.785D+00
 Coeff:      0.189D-04-0.331D-04-0.272D-05 0.646D-06-0.606D-05 0.114D-03
 Coeff:      0.851D-03 0.740D-03-0.152D-02-0.721D-02-0.978D-02-0.168D-01
 Coeff:      0.794D-02 0.241D+00 0.785D+00
 Gap=     0.068 Goal=   None    Shift=    0.000
 RMSDP=2.63D-07 MaxDP=5.98D-06 DE=-3.66D-09 OVMax= 2.83D-05

 Cycle  16  Pass 1  IDiag  1:
 RMSU=  1.07D-07    CP:  9.78D-01  1.04D+00  4.62D-01 -4.61D-02  8.52D-01
                    CP:  8.91D-01  9.58D-01  7.21D-01  7.91D-01  8.51D-01
                    CP:  7.19D-01  9.17D-01  1.09D+00  1.25D+00  1.13D+00
 E= -651.179159210224     Delta-E=       -0.000000000885 Rises=F Damp=F
 DIIS: error= 3.62D-07 at cycle  16 NSaved=  16.
 NSaved=16 IEnMin=16 EnMin= -651.179159210224     IErMin=16 ErrMin= 3.62D-07
 ErrMax= 3.62D-07  0.00D+00 EMaxC= 1.00D-01 BMatC= 1.20D-10 BMatP= 5.67D-10
 IDIUse=1 WtCom= 1.00D+00 WtEn= 0.00D+00
 Coeff-Com:  0.987D-05-0.209D-04-0.147D-04 0.882D-06-0.152D-04 0.719D-04
 Coeff-Com:  0.638D-03 0.842D-03-0.619D-03-0.434D-02-0.917D-02-0.197D-01
 Coeff-Com: -0.437D-01 0.301D-01 0.452D+00 0.594D+00
 Coeff:      0.987D-05-0.209D-04-0.147D-04 0.882D-06-0.152D-04 0.719D-04
 Coeff:      0.638D-03 0.842D-03-0.619D-03-0.434D-02-0.917D-02-0.197D-01
 Coeff:     -0.437D-01 0.301D-01 0.452D+00 0.594D+00
 Gap=     0.068 Goal=   None    Shift=    0.000
 RMSDP=1.06D-07 MaxDP=1.75D-06 DE=-8.85D-10 OVMax= 1.25D-05

 Cycle  17  Pass 1  IDiag  1:
 RMSU=  4.75D-08    CP:  9.78D-01  1.04D+00  4.62D-01 -4.61D-02  8.52D-01
                    CP:  8.91D-01  9.58D-01  7.21D-01  7.91D-01  8.52D-01
                    CP:  7.21D-01  9.22D-01  1.11D+00  1.32D+00  1.28D+00
                    CP:  1.02D+00
 E= -651.179159210416     Delta-E=       -0.000000000192 Rises=F Damp=F
 DIIS: error= 1.84D-07 at cycle  17 NSaved=  17.
 NSaved=17 IEnMin=17 EnMin= -651.179159210416     IErMin=17 ErrMin= 1.84D-07
 ErrMax= 1.84D-07  0.00D+00 EMaxC= 1.00D-01 BMatC= 1.89D-11 BMatP= 1.20D-10
 IDIUse=1 WtCom= 1.00D+00 WtEn= 0.00D+00
 Coeff-Com:  0.109D-06-0.104D-06-0.547D-05-0.166D-06-0.718D-05 0.102D-04
 Coeff-Com:  0.123D-03 0.285D-03 0.713D-04-0.257D-03-0.219D-02-0.349D-02
 Coeff-Com: -0.228D-01-0.322D-01 0.548D-01 0.238D+00 0.768D+00
 Coeff:      0.109D-06-0.104D-06-0.547D-05-0.166D-06-0.718D-05 0.102D-04
 Coeff:      0.123D-03 0.285D-03 0.713D-04-0.257D-03-0.219D-02-0.349D-02
 Coeff:     -0.228D-01-0.322D-01 0.548D-01 0.238D+00 0.768D+00
 Gap=     0.068 Goal=   None    Shift=    0.000
 RMSDP=4.93D-08 MaxDP=1.15D-06 DE=-1.92D-10 OVMax= 5.80D-06

 Cycle  18  Pass 1  IDiag  1:
 RMSU=  1.86D-08    CP:  9.78D-01  1.04D+00  4.62D-01 -4.61D-02  8.52D-01
                    CP:  8.91D-01  9.58D-01  7.21D-01  7.91D-01  8.52D-01
                    CP:  7.21D-01  9.25D-01  1.12D+00  1.36D+00  1.35D+00
                    CP:  1.19D+00  1.10D+00
 E= -651.179159210450     Delta-E=       -0.000000000033 Rises=F Damp=F
 DIIS: error= 6.34D-08 at cycle  18 NSaved=  18.
 NSaved=18 IEnMin=18 EnMin= -651.179159210450     IErMin=18 ErrMin= 6.34D-08
 ErrMax= 6.34D-08  0.00D+00 EMaxC= 1.00D-01 BMatC= 2.81D-12 BMatP= 1.89D-11
 IDIUse=1 WtCom= 1.00D+00 WtEn= 0.00D+00
 Coeff-Com: -0.126D-05 0.241D-05-0.101D-05-0.581D-07-0.129D-05-0.491D-05
 Coeff-Com: -0.314D-04 0.379D-04 0.112D-03 0.554D-03 0.108D-03 0.164D-02
 Coeff-Com: -0.654D-02-0.222D-01-0.380D-01 0.354D-01 0.406D+00 0.623D+00
 Coeff:     -0.126D-05 0.241D-05-0.101D-05-0.581D-07-0.129D-05-0.491D-05
 Coeff:     -0.314D-04 0.379D-04 0.112D-03 0.554D-03 0.108D-03 0.164D-02
 Coeff:     -0.654D-02-0.222D-01-0.380D-01 0.354D-01 0.406D+00 0.623D+00
 Gap=     0.068 Goal=   None    Shift=    0.000
 RMSDP=1.80D-08 MaxDP=3.36D-07 DE=-3.33D-11 OVMax= 2.28D-06

 Cycle  19  Pass 1  IDiag  1:
 RMSU=  7.86D-09    CP:  9.78D-01  1.04D+00  4.62D-01 -4.61D-02  8.52D-01
                    CP:  8.91D-01  9.58D-01  7.21D-01  7.91D-01  8.52D-01
                    CP:  7.21D-01  9.26D-01  1.12D+00  1.37D+00  1.38D+00
                    CP:  1.25D+00  1.23D+00  1.03D+00
 E= -651.179159210451     Delta-E=       -0.000000000001 Rises=F Damp=F
 DIIS: error= 3.19D-08 at cycle  19 NSaved=  19.
 NSaved=19 IEnMin=19 EnMin= -651.179159210451     IErMin=19 ErrMin= 3.19D-08
 ErrMax= 3.19D-08  0.00D+00 EMaxC= 1.00D-01 BMatC= 6.85D-13 BMatP= 2.81D-12
 IDIUse=1 WtCom= 1.00D+00 WtEn= 0.00D+00
 Coeff-Com: -0.607D-06 0.884D-06 0.441D-06-0.145D-07 0.118D-05-0.190D-05
 Coeff-Com: -0.300D-04-0.334D-04-0.160D-04 0.186D-03 0.249D-03 0.126D-02
 Coeff-Com:  0.113D-02 0.833D-05-0.144D-01-0.256D-01-0.337D-01 0.202D+00
 Coeff-Com:  0.869D+00
 Coeff:     -0.607D-06 0.884D-06 0.441D-06-0.145D-07 0.118D-05-0.190D-05
 Coeff:     -0.300D-04-0.334D-04-0.160D-04 0.186D-03 0.249D-03 0.126D-02
 Coeff:      0.113D-02 0.833D-05-0.144D-01-0.256D-01-0.337D-01 0.202D+00
 Coeff:      0.869D+00
 Gap=     0.068 Goal=   None    Shift=    0.000
 RMSDP=7.63D-09 MaxDP=1.41D-07 DE=-9.09D-13 OVMax= 9.22D-07

 Error on total polarization charges =  0.01024
 SCF Done:  E(RB3LYP) =  -651.179159210     A.U. after   19 cycles
            NFock= 19  Conv=0.76D-08     -V/T= 2.0084
 KE= 6.457621699559D+02 PE=-3.318150442717D+03 EE= 1.120380482219D+03
 Leave Link  502 at Tue Jan 20 11:45:00 2026, MaxMem=  4294967296 cpu:             381.0 elap:              24.0
 (Enter /root/g16/l801.exe)
 DoSCS=F DFT=T ScalE2(SS,OS)=  1.000000  1.000000
 Range of M.O.s used for correlation:     1   256
 NBasis=   256 NAE=    51 NBE=    51 NFC=     0 NFV=     0
 NROrb=    256 NOA=    51 NOB=    51 NVA=   205 NVB=   205

 **** Warning!!: The smallest alpha delta epsilon is  0.67812965D-01

 Leave Link  801 at Tue Jan 20 11:45:00 2026, MaxMem=  4294967296 cpu:               0.1 elap:               0.0
 (Enter /root/g16/l1101.exe)
 Using compressed storage, NAtomX=    26.
 Will process     27 centers per pass.
   1 Symmetry operations used in ECPInt.
 ECPInt:  NShTT=    7260 NPrTT=   26324 LenC2=    7114 LenP2D=   19534.
 LDataN:  DoStor=T MaxTD1= 5 Len=  102
 R6Disp: Adding Grimme-D3(BJ) dispersion energy 1st derivatives to the gradient.
 Leave Link 1101 at Tue Jan 20 11:45:00 2026, MaxMem=  4294967296 cpu:               3.6 elap:               0.2
 (Enter /root/g16/l1102.exe)
 Symmetrizing basis deriv contribution to polar:
 IMax=3 JMax=2 DiffMx= 0.00D+00
 Leave Link 1102 at Tue Jan 20 11:45:00 2026, MaxMem=  4294967296 cpu:               0.3 elap:               0.0
 (Enter /root/g16/l1110.exe)
 Forming Gx(P) for the SCF density, NAtomX=    26.
 Integral derivatives from FoFJK, PRISM(SPDF).
 Do as many integral derivatives as possible in FoFJK.
 G2DrvN: MDV=    4294965288.
 G2DrvN: will do    27 centers at a time, making    1 passes.
 Calling FoFCou, ICntrl=  3107 FMM=F I1Cent=   0 AccDes= 0.00D+00.
 FoFJK:  IHMeth= 1 ICntrl=    3107 DoSepK=F KAlg= 0 I1Cent=           0 FoldK=F
 IRaf=         0 NMat=       1 IRICut=       1 DoRegI=T DoRafI=F ISym2E= 0 IDoP0=0 IntGTp=1.
 FoFCou: FMM=F IPFlag=           0 FMFlag=      100000 FMFlg1=           0
         NFxFlg=           0 DoJE=F BraDBF=F KetDBF=F FulRan=T
         wScrn=  0.000000 ICntrl=      3107 IOpCl=  0 I1Cent=           0 NGrid=           0
         NMat0=    1 NMatS0=      1 NMatT0=    0 NMatD0=    1 NMtDS0=    0 NMtDT0=    0
 Symmetry not used in FoFCou.
 NEqPCM:  Using equilibrium solvation (IEInf=0, Eps=  20.4930, EpsInf=   1.8463)
 G2PCM: DoFxE=T DoFxN=T DoGrad=T DoDP/DQ/DG/TGxP=FFFF NFrqRd=   0 IEInf=0 SqF1=F DoCFld=F IF1Alg=4.
 GePol: Maximum number of non-zero 1st derivatives   =     211
 End of G2Drv F.D. properties file   721 does not exist.
 End of G2Drv F.D. properties file   722 does not exist.
 End of G2Drv F.D. properties file   788 does not exist.
 Leave Link 1110 at Tue Jan 20 11:45:25 2026, MaxMem=  4294967296 cpu:             388.9 elap:              24.3
 (Enter /root/g16/l1002.exe)
 Minotr:  Closed shell wavefunction.
          IDoAtm=11111111111111111111111111
 NEqPCM:  Using equilibrium solvation (IEInf=0, Eps=  20.4930, EpsInf=   1.8463)
          Direct CPHF calculation.
          Differentiating once with respect to nuclear coordinates.
          Requested convergence is 1.0D-08 RMS, and 1.0D-07 maximum.
          Secondary convergence is 1.0D-12 RMS, and 1.0D-12 maximum.
          NewPWx=T KeepS1=F KeepF1=F KeepIn=T MapXYZ=F SortEE=F KeepMc=T.
         7770 words used for storage of precomputed grid.
 Keep R1 ints in memory in canonical form, NReq=558668842.
 FoFCou: FMM=F IPFlag=           0 FMFlag=           0 FMFlg1=           0
         NFxFlg=           0 DoJE=F BraDBF=F KetDBF=F FulRan=T
         wScrn=  0.000000 ICntrl=       600 IOpCl=  0 I1Cent=           0 NGrid=           0
         NMat0=    1 NMatS0=  32896 NMatT0=    0 NMatD0=    1 NMtDS0=    0 NMtDT0=    0
 Symmetry not used in FoFCou.
 Two-electron integral symmetry not used.
          MDV=    4294967296 using IRadAn=       1.
          Solving linear equations simultaneously, MaxMat=       0.
          There are    81 degrees of freedom in the 1st order CPHF.  IDoFFX=6 NUNeed=     0.
     75 vectors produced by pass  0 Test12= 1.29D-14 1.23D-09 XBig12= 1.53D-01 1.37D-01.
 AX will form    75 AO Fock derivatives at one time.
     75 vectors produced by pass  1 Test12= 1.29D-14 1.23D-09 XBig12= 3.20D-02 3.96D-02.
     75 vectors produced by pass  2 Test12= 1.29D-14 1.23D-09 XBig12= 3.65D-04 4.03D-03.
     75 vectors produced by pass  3 Test12= 1.29D-14 1.23D-09 XBig12= 2.25D-06 1.83D-04.
     75 vectors produced by pass  4 Test12= 1.29D-14 1.23D-09 XBig12= 5.65D-09 9.35D-06.
     61 vectors produced by pass  5 Test12= 1.29D-14 1.23D-09 XBig12= 6.01D-12 2.80D-07.
     24 vectors produced by pass  6 Test12= 1.29D-14 1.23D-09 XBig12= 5.80D-15 6.15D-09.
 InvSVY:  IOpt=1 It=  1 EMax= 4.44D-16
 Solved reduced A of dimension   460 with    81 vectors.
 End of Minotr F.D. properties file   721 does not exist.
 End of Minotr F.D. properties file   722 does not exist.
 End of Minotr F.D. properties file   788 does not exist.
 Leave Link 1002 at Tue Jan 20 11:45:57 2026, MaxMem=  4294967296 cpu:             511.7 elap:              32.0
 (Enter /root/g16/l601.exe)
 Copying SCF densities to generalized density rwf, IOpCl= 0 IROHF=0.

 **********************************************************************

            Population analysis using the SCF density.

 **********************************************************************

 Orbital symmetries:
       Occupied  (A) (A) (A) (A) (A) (A) (A) (A) (A) (A) (A) (A)
                 (A) (A) (A) (A) (A) (A) (A) (A) (A) (A) (A) (A)
                 (A) (A) (A) (A) (A) (A) (A) (A) (A) (A) (A) (A)
                 (A) (A) (A) (A) (A) (A) (A) (A) (A) (A) (A) (A)
                 (A) (A) (A)
       Virtual   (A) (A) (A) (A) (A) (A) (A) (A) (A) (A) (A) (A)
                 (A) (A) (A) (A) (A) (A) (A) (A) (A) (A) (A) (A)
                 (A) (A) (A) (A) (A) (A) (A) (A) (A) (A) (A) (A)
                 (A) (A) (A) (A) (A) (A) (A) (A) (A) (A) (A) (A)
                 (A) (A) (A) (A) (A) (A) (A) (A) (A) (A) (A) (A)
                 (A) (A) (A) (A) (A) (A) (A) (A) (A) (A) (A) (A)
                 (A) (A) (A) (A) (A) (A) (A) (A) (A) (A) (A) (A)
                 (A) (A) (A) (A) (A) (A) (A) (A) (A) (A) (A) (A)
                 (A) (A) (A) (A) (A) (A) (A) (A) (A) (A) (A) (A)
                 (A) (A) (A) (A) (A) (A) (A) (A) (A) (A) (A) (A)
                 (A) (A) (A) (A) (A) (A) (A) (A) (A) (A) (A) (A)
                 (A) (A) (A) (A) (A) (A) (A) (A) (A) (A) (A) (A)
                 (A) (A) (A) (A) (A) (A) (A) (A) (A) (A) (A) (A)
                 (A) (A) (A) (A) (A) (A) (A) (A) (A) (A) (A) (A)
                 (A) (A) (A) (A) (A) (A) (A) (A) (A) (A) (A) (A)
                 (A) (A) (A) (A) (A) (A) (A) (A) (A) (A) (A) (A)
                 (A) (A) (A) (A) (A) (A) (A) (A) (A) (A) (A) (A)
                 (A)
 The electronic state is 1-A.
 Alpha  occ. eigenvalues --  -19.23505 -19.11921 -19.11067 -10.29075 -10.28158
 Alpha  occ. eigenvalues --  -10.27731 -10.27027 -10.23929 -10.22458 -10.20935
 Alpha  occ. eigenvalues --  -10.20630 -10.20549 -10.18883 -10.17843  -1.06145
 Alpha  occ. eigenvalues --   -1.04712  -1.02472  -0.85074  -0.81791  -0.79441
 Alpha  occ. eigenvalues --   -0.75452  -0.71969  -0.66309  -0.63891  -0.60956
 Alpha  occ. eigenvalues --   -0.57693  -0.52531  -0.52165  -0.51609  -0.50573
 Alpha  occ. eigenvalues --   -0.48496  -0.48090  -0.46120  -0.45423  -0.44180
 Alpha  occ. eigenvalues --   -0.42899  -0.42557  -0.41826  -0.41322  -0.40700
 Alpha  occ. eigenvalues --   -0.39929  -0.37686  -0.36978  -0.35724  -0.34238
 Alpha  occ. eigenvalues --   -0.32223  -0.29954  -0.29630  -0.25551  -0.23870
 Alpha  occ. eigenvalues --   -0.22642
 Alpha virt. eigenvalues --   -0.15860  -0.08151  -0.04428  -0.00097   0.02693
 Alpha virt. eigenvalues --    0.03178   0.05485   0.07533   0.07950   0.09936
 Alpha virt. eigenvalues --    0.10239   0.10771   0.12318   0.13386   0.13916
 Alpha virt. eigenvalues --    0.14634   0.15096   0.17057   0.17394   0.19484
 Alpha virt. eigenvalues --    0.20706   0.22858   0.23805   0.25015   0.26082
 Alpha virt. eigenvalues --    0.28292   0.30532   0.31498   0.33179   0.34420
 Alpha virt. eigenvalues --    0.35262   0.37569   0.39654   0.40123   0.41951
 Alpha virt. eigenvalues --    0.42126   0.44208   0.45913   0.46772   0.48523
 Alpha virt. eigenvalues --    0.49472   0.50353   0.52831   0.53165   0.53931
 Alpha virt. eigenvalues --    0.54701   0.55442   0.57113   0.57970   0.58762
 Alpha virt. eigenvalues --    0.59938   0.60457   0.60756   0.61617   0.62593
 Alpha virt. eigenvalues --    0.62757   0.63552   0.65048   0.65200   0.65808
 Alpha virt. eigenvalues --    0.66604   0.66862   0.67718   0.68055   0.69230
 Alpha virt. eigenvalues --    0.69900   0.70691   0.71196   0.71897   0.73352
 Alpha virt. eigenvalues --    0.74787   0.75386   0.77315   0.78677   0.80121
 Alpha virt. eigenvalues --    0.81544   0.82856   0.85749   0.87754   0.91647
 Alpha virt. eigenvalues --    0.92482   0.93800   0.95205   0.98717   1.02422
 Alpha virt. eigenvalues --    1.04243   1.06345   1.08503   1.10217   1.12255
 Alpha virt. eigenvalues --    1.13244   1.15717   1.17526   1.19069   1.22963
 Alpha virt. eigenvalues --    1.24102   1.25257   1.28528   1.31957   1.33713
 Alpha virt. eigenvalues --    1.39886   1.40628   1.41322   1.44332   1.46800
 Alpha virt. eigenvalues --    1.47379   1.49511   1.52932   1.55594   1.56229
 Alpha virt. eigenvalues --    1.59105   1.60730   1.61169   1.63477   1.64590
 Alpha virt. eigenvalues --    1.66938   1.69160   1.69571   1.70096   1.71314
 Alpha virt. eigenvalues --    1.71561   1.72249   1.74268   1.75590   1.76706
 Alpha virt. eigenvalues --    1.77396   1.78610   1.79046   1.80029   1.80579
 Alpha virt. eigenvalues --    1.82322   1.82955   1.85103   1.85567   1.86560
 Alpha virt. eigenvalues --    1.86630   1.88181   1.88987   1.89770   1.92044
 Alpha virt. eigenvalues --    1.93264   1.94287   1.97160   1.97789   1.99726
 Alpha virt. eigenvalues --    2.01214   2.03517   2.04043   2.06486   2.07554
 Alpha virt. eigenvalues --    2.10217   2.11666   2.13388   2.16047   2.18862
 Alpha virt. eigenvalues --    2.22945   2.23450   2.26086   2.29318   2.30517
 Alpha virt. eigenvalues --    2.34074   2.34261   2.36943   2.41167   2.44043
 Alpha virt. eigenvalues --    2.46569   2.48304   2.51474   2.52613   2.53973
 Alpha virt. eigenvalues --    2.55447   2.58542   2.60952   2.62287   2.64858
 Alpha virt. eigenvalues --    2.67887   2.70559   2.71754   2.72263   2.73255
 Alpha virt. eigenvalues --    2.76286   2.76797   2.79880   2.80398   2.81548
 Alpha virt. eigenvalues --    2.82860   2.85921   2.89403   2.91812   2.93133
 Alpha virt. eigenvalues --    2.94892   2.99388   3.00730   3.05086   3.13358
 Alpha virt. eigenvalues --    3.15654   3.17563   3.20328   3.22769   3.31509
 Alpha virt. eigenvalues --    3.36361   3.38484   3.44413   3.63029   3.64090
          Condensed to atoms (all electrons):
               1          2          3          4          5          6
     1  O    7.807647   0.661379  -0.086192   0.006182  -0.000115   0.000001
     2  C    0.661379   4.726242   0.203618   0.052282   0.004854  -0.000601
     3  C   -0.086192   0.203618   5.474798   0.238215  -0.032630  -0.004806
     4  C    0.006182   0.052282   0.238215   5.347436   0.323759  -0.049432
     5  C   -0.000115   0.004854  -0.032630   0.323759   4.593451   0.423915
     6  C    0.000001  -0.000601  -0.004806  -0.049432   0.423915   4.599311
     7  C   -0.000000   0.000078  -0.000226  -0.004916  -0.064903   0.422280
     8  C   -0.000023  -0.001732   0.005471   0.016513  -0.018139  -0.032508
     9  O    0.000001  -0.000513   0.000735  -0.003091   0.000314  -0.006247
    10  C    0.000195   0.002488  -0.006390  -0.001707   0.002743   0.004233
    11  C   -0.001115  -0.000787  -0.001702  -0.000325  -0.000282  -0.000311
    12  C   -0.113229   0.387733  -0.119566  -0.005932  -0.000958   0.000043
    13  O    0.002308  -0.015263  -0.015423  -0.041327   0.004867  -0.000033
    14  C    0.000336  -0.029140  -0.043646   0.437166  -0.043536  -0.005091
    15  H    0.005620  -0.029012   0.377147  -0.033350  -0.014442  -0.000523
    16  H   -0.000007   0.001228  -0.014604  -0.008010   0.352819  -0.007334
    17  H    0.000002  -0.000420   0.006961  -0.018747   0.363589  -0.013982
    18  H   -0.000000   0.000030  -0.000339   0.009095  -0.016216   0.359462
    19  H    0.000003  -0.000473   0.003676  -0.011576  -0.009173   0.352566
    20  H    0.000000  -0.000015   0.000428  -0.007525   0.000770  -0.024210
    21  H    0.000000  -0.000012   0.000015   0.000573   0.007842   0.000949
    22  H   -0.000005   0.000122   0.000489  -0.004368  -0.000261   0.000595
    23  H    0.001674   0.011841   0.001012  -0.003408   0.000003   0.000089
    24  H   -0.000037  -0.002212  -0.000215   0.000668  -0.000020   0.000007
    25  H    0.011833  -0.020484   0.011803  -0.001143   0.000098   0.000002
    26  H    0.000008  -0.000211   0.010792  -0.045643   0.003029  -0.000730
               7          8          9         10         11         12
     1  O   -0.000000  -0.000023   0.000001   0.000195  -0.001115  -0.113229
     2  C    0.000078  -0.001732  -0.000513   0.002488  -0.000787   0.387733
     3  C   -0.000226   0.005471   0.000735  -0.006390  -0.001702  -0.119566
     4  C   -0.004916   0.016513  -0.003091  -0.001707  -0.000325  -0.005932
     5  C   -0.064903  -0.018139   0.000314   0.002743  -0.000282  -0.000958
     6  C    0.422280  -0.032508  -0.006247   0.004233  -0.000311   0.000043
     7  C    4.700754   0.330139  -0.054153  -0.100065   0.016060  -0.000018
     8  C    0.330139   4.920811   0.564491   0.359104  -0.058878   0.000333
     9  O   -0.054153   0.564491   7.941313  -0.215564   0.008523   0.000016
    10  C   -0.100065   0.359104  -0.215564   5.021694   0.593353  -0.002123
    11  C    0.016060  -0.058878   0.008523   0.593353   4.855433   0.002397
    12  C   -0.000018   0.000333   0.000016  -0.002123   0.002397   5.161821
    13  O   -0.000061  -0.002354   0.000007   0.002409  -0.001675   0.211353
    14  C   -0.001292  -0.002138   0.000137   0.003086  -0.003308  -0.046039
    15  H    0.000096   0.000224  -0.000015  -0.000086   0.000011   0.010301
    16  H    0.008801   0.000281  -0.000014  -0.000061  -0.000015  -0.000108
    17  H   -0.005722  -0.002415  -0.000019   0.000181   0.000046   0.000061
    18  H   -0.006416   0.006508  -0.000161  -0.000596   0.000022  -0.000001
    19  H   -0.044301  -0.003785   0.009042   0.002295   0.000075   0.000002
    20  H    0.345824  -0.005064   0.003328  -0.002204   0.000409  -0.000024
    21  H    0.330651   0.004554   0.001216   0.009210  -0.000729   0.000000
    22  H    0.008595  -0.061552   0.014644   0.248487   0.003609  -0.000706
    23  H    0.000813  -0.024871   0.007905  -0.045420   0.399863  -0.002726
    24  H   -0.000342   0.012380   0.002126   0.020527   0.310205   0.004824
    25  H   -0.000002   0.000012  -0.000012  -0.000405   0.002981   0.327847
    26  H    0.002463  -0.003079   0.000053   0.003317  -0.001081   0.003533
              13         14         15         16         17         18
     1  O    0.002308   0.000336   0.005620  -0.000007   0.000002  -0.000000
     2  C   -0.015263  -0.029140  -0.029012   0.001228  -0.000420   0.000030
     3  C   -0.015423  -0.043646   0.377147  -0.014604   0.006961  -0.000339
     4  C   -0.041327   0.437166  -0.033350  -0.008010  -0.018747   0.009095
     5  C    0.004867  -0.043536  -0.014442   0.352819   0.363589  -0.016216
     6  C   -0.000033  -0.005091  -0.000523  -0.007334  -0.013982   0.359462
     7  C   -0.000061  -0.001292   0.000096   0.008801  -0.005722  -0.006416
     8  C   -0.002354  -0.002138   0.000224   0.000281  -0.002415   0.006508
     9  O    0.000007   0.000137  -0.000015  -0.000014  -0.000019  -0.000161
    10  C    0.002409   0.003086  -0.000086  -0.000061   0.000181  -0.000596
    11  C   -0.001675  -0.003308   0.000011  -0.000015   0.000046   0.000022
    12  C    0.211353  -0.046039   0.010301  -0.000108   0.000061  -0.000001
    13  O    7.940566   0.276515  -0.000600  -0.000164   0.000246   0.000002
    14  C    0.276515   4.850760   0.006649   0.004188  -0.004807  -0.000198
    15  H   -0.000600   0.006649   0.634801   0.005095   0.000376  -0.000063
    16  H   -0.000164   0.004188   0.005095   0.665071  -0.025210  -0.002677
    17  H    0.000246  -0.004807   0.000376  -0.025210   0.672827  -0.010903
    18  H    0.000002  -0.000198  -0.000063  -0.002677  -0.010903   0.674581
    19  H    0.000008   0.000543   0.000766  -0.009750   0.007826  -0.026122
    20  H   -0.000005   0.001067  -0.000006   0.000018   0.003875  -0.005850
    21  H    0.000000   0.000024   0.000000  -0.000330   0.000003  -0.009695
    22  H    0.002649   0.005145   0.000006   0.000011  -0.000150   0.000039
    23  H   -0.000603   0.000636   0.000030  -0.000004  -0.000007   0.000001
    24  H    0.002275  -0.000843   0.000001   0.000000   0.000001  -0.000000
    25  H   -0.014758   0.003524  -0.000569  -0.000003  -0.000004  -0.000000
    26  H   -0.020547   0.359420  -0.000510  -0.000412   0.002077  -0.000112
              19         20         21         22         23         24
     1  O    0.000003   0.000000   0.000000  -0.000005   0.001674  -0.000037
     2  C   -0.000473  -0.000015  -0.000012   0.000122   0.011841  -0.002212
     3  C    0.003676   0.000428   0.000015   0.000489   0.001012  -0.000215
     4  C   -0.011576  -0.007525   0.000573  -0.004368  -0.003408   0.000668
     5  C   -0.009173   0.000770   0.007842  -0.000261   0.000003  -0.000020
     6  C    0.352566  -0.024210   0.000949   0.000595   0.000089   0.000007
     7  C   -0.044301   0.345824   0.330651   0.008595   0.000813  -0.000342
     8  C   -0.003785  -0.005064   0.004554  -0.061552  -0.024871   0.012380
     9  O    0.009042   0.003328   0.001216   0.014644   0.007905   0.002126
    10  C    0.002295  -0.002204   0.009210   0.248487  -0.045420   0.020527
    11  C    0.000075   0.000409  -0.000729   0.003609   0.399863   0.310205
    12  C    0.000002  -0.000024   0.000000  -0.000706  -0.002726   0.004824
    13  O    0.000008  -0.000005   0.000000   0.002649  -0.000603   0.002275
    14  C    0.000543   0.001067   0.000024   0.005145   0.000636  -0.000843
    15  H    0.000766  -0.000006   0.000000   0.000006   0.000030   0.000001
    16  H   -0.009750   0.000018  -0.000330   0.000011  -0.000004   0.000000
    17  H    0.007826   0.003875   0.000003  -0.000150  -0.000007   0.000001
    18  H   -0.026122  -0.005850  -0.009695   0.000039   0.000001  -0.000000
    19  H    0.698807   0.009973  -0.002409  -0.000272  -0.000057  -0.000006
    20  H    0.009973   0.675115  -0.021686   0.001209   0.000028  -0.000094
    21  H   -0.002409  -0.021686   0.638181  -0.001856  -0.000068   0.000024
    22  H   -0.000272   0.001209  -0.001856   0.798482   0.015245  -0.031339
    23  H   -0.000057   0.000028  -0.000068   0.015245   0.655191  -0.061719
    24  H   -0.000006  -0.000094   0.000024  -0.031339  -0.061719   0.702254
    25  H   -0.000000   0.000001   0.000000  -0.000378  -0.001826   0.001927
    26  H   -0.000045   0.002310  -0.000078   0.002309   0.000127  -0.000190
              25         26
     1  O    0.011833   0.000008
     2  C   -0.020484  -0.000211
     3  C    0.011803   0.010792
     4  C   -0.001143  -0.045643
     5  C    0.000098   0.003029
     6  C    0.000002  -0.000730
     7  C   -0.000002   0.002463
     8  C    0.000012  -0.003079
     9  O   -0.000012   0.000053
    10  C   -0.000405   0.003317
    11  C    0.002981  -0.001081
    12  C    0.327847   0.003533
    13  O   -0.014758  -0.020547
    14  C    0.003524   0.359420
    15  H   -0.000569  -0.000510
    16  H   -0.000003  -0.000412
    17  H   -0.000004   0.002077
    18  H   -0.000000  -0.000112
    19  H   -0.000000  -0.000045
    20  H    0.000001   0.002310
    21  H    0.000000  -0.000078
    22  H   -0.000378   0.002309
    23  H   -0.001826   0.000127
    24  H    0.001927  -0.000190
    25  H    0.599518  -0.000128
    26  H   -0.000128   0.610628
 Mulliken charges:
               1
     1  O   -0.296466
     2  C    0.048980
     3  C   -0.009421
     4  C   -0.191391
     5  C    0.118624
     6  C   -0.017644
     7  C    0.115861
     8  C   -0.004282
     9  O   -0.274063
    10  C    0.101301
    11  C   -0.122780
    12  C    0.181166
    13  O   -0.330394
    14  C    0.230840
    15  H    0.038052
    16  H    0.031190
    17  H    0.024315
    18  H    0.029611
    19  H    0.022388
    20  H    0.022330
    21  H    0.043620
    22  H   -0.000751
    23  H    0.046250
    24  H    0.039800
    25  H    0.080167
    26  H    0.072698
 Sum of Mulliken charges =  -0.00000
 Mulliken charges with hydrogens summed into heavy atoms:
               1
     1  O   -0.296466
     2  C    0.048980
     3  C    0.028631
     4  C   -0.191391
     5  C    0.174130
     6  C    0.034355
     7  C    0.181811
     8  C   -0.004282
     9  O   -0.274063
    10  C    0.100550
    11  C   -0.036730
    12  C    0.261333
    13  O   -0.330394
    14  C    0.303538
 APT charges:
               1
     1  O    0.562023
     2  C   -1.150857
     3  C   -0.386102
     4  C   -0.593582
     5  C   -0.611600
     6  C   -0.752533
     7  C   -0.449674
     8  C   -0.801913
     9  O    0.152097
    10  C    0.051740
    11  C   -0.191028
    12  C    0.415721
    13  O   -0.416568
    14  C    0.313851
    15  H    0.500643
    16  H    0.463405
    17  H    0.392404
    18  H    0.672688
    19  H    0.170444
    20  H    0.263433
    21  H    0.645535
    22  H    0.052231
    23  H   -0.011129
    24  H    0.255896
    25  H    0.276548
    26  H    0.176327
 Sum of APT charges =  -0.00000
 APT charges with hydrogens summed into heavy atoms:
               1
     1  O    0.562023
     2  C   -1.150857
     3  C    0.114541
     4  C   -0.593582
     5  C    0.244209
     6  C    0.090599
     7  C    0.459294
     8  C   -0.801913
     9  O    0.152097
    10  C    0.103971
    11  C    0.053739
    12  C    0.692269
    13  O   -0.416568
    14  C    0.490178
 Electronic spatial extent (au):  <R**2>=           2448.1598
 Charge=             -0.0000 electrons
 Dipole moment (field-independent basis, Debye):
    X=             -4.4042    Y=             -4.0997    Z=              3.8054  Tot=              7.1194
 Quadrupole moment (field-independent basis, Debye-Ang):
   XX=            -87.8305   YY=            -83.0980   ZZ=            -89.1529
   XY=              8.1040   XZ=              2.3801   YZ=              5.6863
 Traceless Quadrupole moment (field-independent basis, Debye-Ang):
   XX=             -1.1367   YY=              3.5958   ZZ=             -2.4591
   XY=              8.1040   XZ=              2.3801   YZ=              5.6863
 Octapole moment (field-independent basis, Debye-Ang**2):
  XXX=            -54.8444  YYY=            -20.6779  ZZZ=              3.7537  XYY=              9.4572
  XXY=             -1.5379  XXZ=             30.2504  XZZ=            -16.3673  YZZ=             -8.0356
  YYZ=             -0.8146  XYZ=             -1.2349
 Hexadecapole moment (field-independent basis, Debye-Ang**3):
 XXXX=          -1730.5939 YYYY=          -1061.7351 ZZZZ=           -542.5531 XXXY=             29.7212
 XXXZ=             73.4217 YYYX=             29.2731 YYYZ=             18.7515 ZZZX=              4.2219
 ZZZY=              5.0210 XXYY=           -440.2528 XXZZ=           -429.6368 YYZZ=           -263.8884
 XXYZ=             18.5293 YYXZ=            -13.2153 ZZXY=             10.1787
 N-N= 9.008286313309D+02 E-N=-3.318150441408D+03  KE= 6.457621699559D+02
  Exact polarizability:   0.000   0.000   0.000   0.000   0.000   0.000
 Approx polarizability: 333.259  95.498 207.218 -57.808 -27.610 246.755
 No NMR shielding tensors so no spin-rotation constants.
 Leave Link  601 at Tue Jan 20 11:45:57 2026, MaxMem=  4294967296 cpu:               2.4 elap:               0.2
 (Enter /root/g16/l701.exe)
 ... and contract with generalized density number  0.
 Compute integral second derivatives.
 R6Disp: Adding Grimme-D3(BJ) dispersion energy 2nd derivatives to the Hessian.
   1 Symmetry operations used in ECPInt.
 ECPInt:  NShTT=    7260 NPrTT=   26324 LenC2=    7114 LenP2D=   19534.
 LDataN:  DoStor=T MaxTD1= 6 Len=  172
 D2PCM: PCM CHGder 2nd derivatives, FixD1E=F FixD2E=F DoIter=F DoCFld=F I1PDM=0
 GePol: Maximum number of non-zero 2nd derivatives   =     211
 Leave Link  701 at Tue Jan 20 11:46:00 2026, MaxMem=  4294967296 cpu:              43.1 elap:               2.7
 (Enter /root/g16/l702.exe)
 L702 exits ... SP integral derivatives will be done elsewhere.
 Leave Link  702 at Tue Jan 20 11:46:00 2026, MaxMem=  4294967296 cpu:               0.1 elap:               0.0
 (Enter /root/g16/l703.exe)
 Integral derivatives from FoFJK, PRISM(SPDF).
 Compute integral second derivatives, UseDBF=F ICtDFT=           0.
 Calling FoFJK, ICntrl=    100147 FMM=F ISym2X=0 I1Cent= 0 IOpClX= 0 NMat=1 NMatS=1 NMatT=0.
 FoFJK:  IHMeth= 1 ICntrl=  100147 DoSepK=F KAlg= 0 I1Cent=           0 FoldK=F
 IRaf=         0 NMat=       1 IRICut=       1 DoRegI=T DoRafI=F ISym2E= 0 IDoP0=0 IntGTp=1.
[...]
 0.06519586,0.00000388,-0.00028733,0.00058623,-0.00041222,-0.00094935,-
 0.00074006,-0.00079816,-0.00039285,-0.00040582,0.00034484,-0.00005495,
 0.00012580,-0.00000812,0.00001543,0.00014701,-0.00010381,-0.00001387,-
 0.00001273,0.00019888,0.00005326,0.00012861,-0.00015400,-0.00039428,-0
 .00037213,-0.00057924,0.00023396,0.00002838,0.00097721,-0.00060908,0.0
 0070345,-0.00231530,0.00220132,-0.00280756,-0.00585719,0.00333891,0.02
 682957,0.06734053,0.00007076,0.00000801,-0.00008001,-0.00004461,-0.000
 00544,0.00000052,0.00006892,0.00002292,0.00013307,-0.00055363,-0.00008
 154,-0.00052436,-0.00394947,-0.00066833,0.01759700,0.00519254,-0.04625
 268,-0.01968401,0.00661091,-0.00622675,-0.03168529,0.00055370,0.000728
 82,-0.00408863,0.00028587,0.00096743,0.00196029,0.00011670,-0.00007531
 ,0.00032917,-0.00002231,0.00001857,0.00021277,-0.00001151,0.00001382,-
 0.00005250,0.00002965,0.00002177,0.00004800,0.00001260,0.00012620,-0.0
 0001265,0.00008218,0.00000234,-0.00003702,-0.00060124,0.00076503,0.000
 03503,0.00297632,-0.00099134,0.00224146,-0.00227047,0.00083772,0.01157
 563,-0.00865306,0.05611403,0.00000203,-0.00002524,-0.00005564,-0.00003
 834,0.00001849,0.00025940,-0.00011183,-0.00026515,-0.00011653,0.001132
 59,0.00048881,0.00038363,0.00315979,-0.00017291,-0.01591125,0.06191934
 ,-0.02162064,-0.29364236,0.00035819,-0.00379135,-0.00731561,0.00215324
 ,0.00096119,-0.00243363,0.00012287,0.00208345,0.00198679,-0.00006824,-
 0.00013761,-0.00014571,0.00001019,0.00004636,-0.00001095,0.00000383,-0
 .00005098,-0.00017124,-0.00011161,-0.00002713,0.00017246,-0.00002433,-
 0.00020639,-0.00018928,-0.00015560,0.00018756,0.00019396,-0.00003205,-
 0.00004009,0.00107556,-0.00243612,0.00169944,-0.00063483,0.00052876,-0
 .00005495,-0.00184159,-0.06696874,0.02248698,0.31712920,0.00011253,-0.
 00001751,-0.00017806,-0.00002873,0.00008856,0.00022564,-0.00000994,0.0
 0000621,0.00009136,-0.00012316,-0.00006277,0.00005779,0.00006865,0.000
 07973,0.00072887,-0.00022992,0.00036495,0.00011431,-0.04954598,0.00061
 133,0.01342971,0.00173263,0.00766753,0.02523063,-0.00564721,-0.0042268
 0,0.00433085,-0.00031537,0.00029477,-0.00012749,0.00036316,0.00007269,
 -0.00021787,0.00011296,-0.00003666,-0.00019495,-0.00023257,-0.00013589
 ,0.00006944,0.00016758,-0.00003320,0.00008837,0.00000421,-0.00002296,-
 0.00001991,0.00000492,-0.00012310,-0.00007931,0.00000352,0.00014251,0.
 00012217,-0.00001416,0.00013777,-0.00013209,0.00055918,-0.00014629,0.0
 0070649,0.05073225,-0.00004401,0.00000603,0.00010553,-0.00002357,-0.00
 006498,-0.00013436,-0.00001171,-0.00003514,-0.00014474,0.00012074,-0.0
 0009488,0.00013682,-0.00008737,0.00213853,-0.00073269,0.00325044,-0.00
 420424,-0.03204802,0.00126871,-0.05285455,-0.03545202,0.00423478,0.002
 08751,0.01531615,-0.00561342,-0.00048550,0.00247439,-0.00074515,-0.000
 38817,0.00011459,0.00034584,0.00005656,-0.00019138,-0.00003198,0.00004
 972,0.00015530,0.00009313,0.00009644,-0.00006397,0.00014425,0.00004075
 ,-0.00007459,-0.00001640,0.00000938,0.00004903,-0.00041193,0.00025402,
 0.00012816,0.00007498,-0.00039958,0.00057967,-0.00032651,0.00063307,0.
 00042032,-0.00002408,-0.00626634,-0.00123425,-0.00026318,0.05840165,0.
 00002553,-0.00000279,0.00001835,-0.00011274,-0.00000786,-0.00005703,0.
 00002231,-0.00001561,0.00000960,0.00014593,-0.00011720,0.00003167,-0.0
 0058708,0.00082414,0.00089759,0.00069089,-0.00095028,-0.00516134,0.019
 37576,-0.03219532,-0.30683962,-0.00440066,-0.00407361,-0.00947807,0.00
 387883,0.00189930,-0.00112464,-0.00086907,-0.00104989,-0.00004120,0.00
 007930,0.00014047,0.00050531,-0.00008889,0.00002366,0.00010205,0.00019
 006,0.00013996,-0.00000652,-0.00001057,-0.00009638,-0.00019224,-0.0000
 2020,0.00000571,0.00002651,-0.00008220,0.00000642,0.00015900,0.0004946
 6,-0.00046015,0.00019435,-0.00012670,-0.00037279,0.00018898,-0.0003649
 5,-0.00101928,0.00064672,-0.01921493,0.03866587,0.32995037,-0.00009883
 ,0.00000427,0.00015468,0.00009723,-0.00005521,-0.00021604,0.00002599,-
 0.00002882,-0.00007107,0.00021529,-0.00016950,0.00003875,0.00108101,-0
 .00035514,0.00037808,0.00042331,-0.00126526,0.00048232,-0.22058038,0.0
 8980386,-0.09180656,-0.02338247,0.01013941,-0.01061397,0.00351241,-0.0
 0203340,0.00003538,-0.00093097,-0.00303961,0.00195518,0.00015587,-0.00
 045735,-0.00034955,0.00001429,0.00009506,0.00002889,-0.00005171,0.0000
 2935,0.00000257,0.00000241,0.00003833,0.00010624,0.00001062,-0.0000059
 0,-0.00000168,0.00000933,-0.00005330,-0.00015127,-0.00007456,0.0000541
 8,-0.00013525,0.00119167,-0.00022549,0.00037976,-0.00004301,0.00021423
 ,-0.00004397,0.00294372,-0.00160775,0.00146295,0.23582085,0.00008666,0
 .00004303,-0.00004823,-0.00015061,-0.00012116,-0.00006366,0.00025568,0
 .00014104,0.00000762,-0.00122981,-0.00039602,-0.00029095,0.00001928,-0
 .00543555,-0.00303859,0.02522709,-0.01527185,0.01448007,0.08288455,-0.
 07801369,0.04409207,-0.01396422,0.00609306,-0.00566001,0.00107917,-0.0
 0008941,-0.00082139,0.00006483,-0.00325420,0.00077665,0.00032546,-0.00
 016407,-0.00010832,-0.00003353,0.00014135,-0.00005232,-0.00000295,0.00
 014597,0.00013306,-0.00005392,0.00005208,-0.00004821,-0.00001440,-0.00
 001493,0.00001496,0.00113735,-0.00111478,0.00090039,-0.00021778,0.0002
 3287,-0.00007608,0.00002013,0.00153477,0.00069891,0.00005878,0.0009088
 1,-0.00038561,-0.00395768,0.00130335,-0.00144536,-0.09130929,0.0931208
 5,-0.00005923,0.00000370,0.00012801,-0.00002092,-0.00005940,-0.0001820
 8,-0.00007669,-0.00001032,-0.00002901,0.00006149,-0.00000934,-0.000132
 66,-0.00004516,-0.00078390,0.00038731,0.00689006,-0.00426305,0.0031626
 4,-0.09005414,0.04609241,-0.09308622,0.01023832,-0.00682820,0.00424009
 ,-0.00028184,0.00160997,-0.00095555,-0.00054533,0.00062011,-0.00008431
 ,0.00002612,0.00001043,0.00014763,-0.00010755,0.00008226,0.00014253,0.
 00012785,0.00008304,-0.00004386,-0.00009286,-0.00001929,-0.00005003,0.
 00000217,0.00001320,0.00002066,-0.00010378,-0.00011511,0.00020944,0.00
 006220,-0.00027320,0.00023286,0.00001874,0.00038436,0.00034812,0.00015
 941,0.00039704,0.00041838,-0.02473844,0.01180451,-0.01084808,0.0984230
 0,-0.04890415,0.09569201,-0.00000432,0.00005602,-0.00007015,-0.0000237
 7,-0.00004850,0.00009345,-0.00008848,0.00003524,0.00004597,-0.00000963
 ,-0.00009274,-0.00014871,0.00002014,-0.00001824,0.00000674,0.00016358,
 0.00024993,0.00012229,-0.00064457,0.00020315,-0.00020319,0.00845354,-0
 .00165528,-0.01460765,-0.00171152,-0.00338148,-0.00399020,-0.08399440,
 0.00860043,0.09279193,-0.00639013,0.00407882,0.02781751,-0.00024109,0.
 00017162,0.00010137,0.00008750,-0.00032559,0.00006910,-0.00003717,0.00
 069795,0.00005708,-0.00000479,0.00000489,-0.00000139,-0.00001043,0.000
 00047,-0.00000817,-0.00000272,-0.00000117,-0.00000016,-0.00000072,0.00
 005292,0.00002599,0.00004652,0.00012823,-0.00007692,-0.00063681,-0.000
 59902,-0.00024082,-0.00008331,-0.00007173,0.00009529,0.08718921,0.0000
 0590,0.00000764,0.00010056,-0.00002307,-0.00007278,-0.00020213,0.00017
 709,-0.00002950,-0.00013666,-0.00011583,0.00022813,0.00012745,-0.00004
 705,0.00003992,-0.00003054,-0.00008259,0.00008221,0.00015180,0.0002588
 1,-0.00035503,-0.00024091,0.00904250,0.00083277,-0.01036320,-0.0032834
 8,-0.00035203,-0.00464056,0.00829855,-0.05132206,-0.04822588,-0.005717
 83,0.00672132,0.01121307,0.00028815,-0.00022448,-0.00005033,-0.0002700
 5,0.00060080,-0.00011752,0.00019321,-0.00116743,-0.00006466,0.00000618
 ,0.00000934,0.00002692,0.00003332,0.00001222,0.00001189,0.00000600,-0.
 00001311,0.00000251,0.00001443,-0.00002484,0.00000328,0.00002992,0.000
 13613,-0.00002537,-0.00066001,-0.00030266,0.00008124,0.00008817,0.0000
 1099,0.00021904,-0.00576251,0.04312897,-0.00009298,0.00002056,0.000141
 06,-0.00007220,-0.00001303,-0.00011407,-0.00012407,-0.00001206,0.00004
 328,0.00012027,-0.00004576,-0.00011044,0.00002186,-0.00003320,-0.00002
 513,0.00005414,-0.00002671,0.00030114,-0.00007213,0.00093387,-0.000304
 85,0.01033917,0.00247393,-0.01053918,-0.00247204,-0.00385268,-0.003175
 96,0.09418622,-0.05011183,-0.29558224,0.00032866,-0.00255565,-0.002493
 65,-0.00019804,0.00012512,0.00025664,0.00053727,0.00010714,-0.00011441
 ,-0.00056200,0.00055065,-0.00010488,-0.00000510,0.00002040,0.00000708,
 0.00000338,0.00000572,0.00000324,0.00000226,-0.00001221,0.00000317,0.0
 0001266,-0.00000697,0.00004175,0.00003155,0.00020998,0.00007903,-0.000
 24462,-0.00014542,0.00093209,-0.00004143,-0.00009625,0.00014325,-0.102
 31444,0.05252654,0.30862743,-0.00021462,-0.00064248,0.00038626,0.00042
 268,0.00063331,-0.00095557,-0.00026413,-0.00008967,0.00003490,0.000025
 24,-0.00005767,-0.00021816,0.00000339,0.00000228,0.00002757,0.00001307
 ,-0.00006990,-0.00006461,0.00043262,0.00003201,-0.00016371,-0.00156754
 ,0.00338883,0.00120065,0.00188680,-0.00011036,-0.00145641,-0.00442647,
 0.00514841,0.02852468,-0.08250355,0.00988480,0.08817869,-0.00021357,0.
 00067665,-0.00006347,0.00010955,-0.00012584,0.00012889,-0.00009391,0.0
 0027399,0.00000161,0.00000560,-0.00002102,0.00000411,-0.00001677,0.000
 01013,-0.00000328,-0.00000877,0.00000272,-0.00000607,0.00000718,0.0000
 4185,-0.00000689,-0.00002823,-0.00007507,-0.00000609,0.00018925,0.0001
 1352,-0.00019995,0.00006821,0.00005770,-0.00012601,-0.00185360,-0.0056
 8926,0.00158553,0.08031055,0.00001766,0.00100623,-0.00071715,-0.000454
 25,-0.00107447,0.00169121,0.00041723,-0.00002187,-0.00019956,-0.000098
 71,0.00026431,0.00053304,0.00002870,-0.00000865,0.00002751,0.00017063,
 -0.00004649,-0.00020297,-0.00023592,0.00066159,-0.00045530,0.00284922,
 -0.00601200,0.00340469,0.00003876,0.00068638,-0.00021480,-0.00405601,0
 .00814734,0.00786745,0.01161874,-0.05336028,-0.05583339,0.00057385,-0.
 00154975,0.00054609,-0.00012085,0.00017982,-0.00044565,-0.00005854,-0.
 00061719,0.00019476,0.00000778,0.00001992,-0.00001043,0.00000252,0.000
 00589,-0.00000772,0.00001614,0.00000121,-0.00000929,0.00000222,0.00005
 261,0.00001904,-0.00003091,-0.00007470,0.00002448,0.00007886,0.0001328
 4,-0.00000517,-0.00013667,-0.00011294,0.00016473,-0.00551814,0.0069594
 3,-0.00216785,-0.01009172,0.04269085,-0.00000228,-0.00037411,0.0000335
 8,-0.00012892,0.00006781,-0.00026377,0.00026353,0.00001127,0.00003089,
 0.00013442,0.00002558,0.00005306,0.00002016,0.00001522,-0.00000232,0.0
 0005372,-0.00009643,0.00002082,0.00022625,0.00001741,-0.00017951,-0.00
 193886,0.00120080,-0.00340137,-0.00163370,-0.00108318,0.00128495,0.004
 04938,-0.00152127,-0.00308277,0.09214940,-0.05310610,-0.29989356,-0.00
 021053,0.00004559,0.00001748,0.00044547,0.00006935,-0.00003600,-0.0003
 6117,-0.00008438,-0.00010738,-0.00001805,0.00002400,-0.00001954,-0.000
 02987,-0.00000610,-0.00000453,-0.00002027,-0.00000491,0.00000863,-0.00
 002426,0.00003858,0.00000069,-0.00001684,-0.00000790,0.00002632,0.0001
 3852,0.00007690,0.00007167,0.00006657,0.00003904,-0.00005078,0.0019372
 9,-0.00255506,0.00178077,-0.10199229,0.05806179,0.31179215,-0.00007531
 ,0.00012073,-0.00001911,-0.00008773,-0.00022202,0.00012535,0.00008838,
 0.00002424,-0.00004762,-0.00005812,0.00002755,-0.00003749,0.00002128,0
 .00002832,-0.00002175,-0.00024991,0.00001650,0.00003535,-0.00076780,0.
 00003667,-0.00136230,-0.00109386,-0.00454084,0.00662021,0.00119021,0.0
 0105509,-0.00073677,-0.00972236,-0.01644502,-0.01925179,-0.14615318,-0
 .09370331,-0.10024417,-0.00007009,0.00069567,-0.00001936,-0.00002393,-
 0.00021657,0.00022801,-0.00000050,0.00013822,-0.00001615,-0.00000346,-
 0.00000008,0.00000552,0.00002103,-0.00001692,0.00000315,0.00000539,0.0
 0000822,0.00000749,0.00000923,-0.00014723,-0.00000195,0.00002093,-0.00
 000594,-0.00001037,0.00009261,0.00006032,0.00002090,-0.00034508,-0.000
 24500,0.00010941,-0.00027690,0.00318077,-0.00098479,0.00770096,0.00503
 448,0.00693766,0.14974055,0.00000527,-0.00010628,-0.00004221,0.0001211
 0,0.00035586,0.00014648,-0.00012885,-0.00001922,0.00011307,0.00008842,
 -0.00004656,0.00002195,-0.00004809,-0.00007530,-0.00002562,-0.00033897
 ,0.00013560,0.00021617,0.00109761,-0.00164232,0.00037029,-0.00506110,0
 .00914792,-0.00277158,0.00032851,-0.00132409,0.00001766,-0.00622735,0.
 00255435,-0.00698163,-0.09527515,-0.12460498,-0.10141182,0.00020545,-0
 .00098729,-0.00043477,-0.00015950,0.00047702,-0.00002778,-0.00012454,-
 0.00027688,0.00001635,-0.00000418,0.00000886,-0.00000074,0.00001672,-0
 .00000301,0.00001610,0.00000363,-0.00000348,0.00000659,0.00002417,-0.0
 0010030,-0.00002758,0.00003590,0.00005176,-0.00002672,-0.00001806,-0.0
 0002505,0.00001264,0.00029600,0.00031739,-0.00015267,0.00324572,-0.004
 86491,0.00208682,-0.00322610,0.00194119,-0.00084698,0.10511938,0.11895
 558,-0.00015421,-0.00012544,0.00025432,0.00018797,0.00008397,-0.000320
 46,-0.00012279,-0.00005816,0.00003288,0.00003054,-0.00004561,-0.000307
 73,0.00001402,0.00003433,0.00002085,0.00016196,-0.00002130,-0.00010581
 ,-0.00028968,0.00088646,0.00000589,0.00375740,-0.00284069,-0.00022871,
 -0.00133441,0.00010024,0.00094002,0.00948446,0.00519174,0.00978953,-0.
 10402275,-0.10359814,-0.16984850,-0.00007684,0.00078938,-0.00014932,-0
 .00029229,-0.00016451,0.00028494,0.00025312,0.00032417,0.00006792,0.00
 000046,0.00000072,0.00000548,-0.00000320,0.00000444,-0.00000480,0.,0.0
 0000019,-0.00000303,-0.00001038,0.00004870,0.00001694,-0.00000946,-0.0
 0001209,0.00002431,0.00000379,0.00000806,-0.00000681,-0.00009466,-0.00
 014117,0.00008005,-0.00147388,0.00207144,0.00011510,-0.01475640,-0.012
 23528,-0.00804220,0.10864731,0.10974268,0.16731464,0.00043368,0.001121
 72,-0.00204723,0.00134745,-0.00161986,0.00608529,0.00041470,-0.0021613
 3,0.00034170,-0.00008333,-0.00105710,-0.00088389,-0.00020119,0.0003556
 5,-0.00025865,-0.00008697,-0.00010504,-0.00001312,0.00005152,-0.000026
 68,0.00001552,-0.00010820,-0.00015771,-0.00024765,-0.00001929,0.000090
 37,0.00010311,0.00038980,0.00025205,-0.00001021,-0.00043270,0.00002782
 ,-0.00005032,-0.26253394,-0.13289035,-0.05345602,-0.02407364,-0.005986
 29,0.00475639,0.00623970,-0.00044357,0.00225856,-0.00059756,0.00094821
 ,-0.00032254,-0.00000236,0.00001197,0.00002238,0.00002069,0.00000197,0
 .00001142,-0.00002983,0.00002454,-0.00003257,-0.00001257,0.00000548,0.
 00000467,-0.00000249,0.00000517,0.00001302,0.00000657,0.00002114,0.000
 00769,0.00002119,-0.00000639,-0.00000381,0.00001319,-0.00005508,-0.000
 04208,0.00003514,0.00002373,0.00009514,0.27945114,0.00214020,-0.001584
 28,0.00114978,-0.01086037,0.00336205,0.00085624,-0.00230925,0.00274780
 ,-0.00321230,-0.00029323,0.00076324,-0.00172935,0.00040750,-0.00077610
 ,0.00029343,0.00013309,0.00011878,0.00007350,-0.00006290,0.00006901,-0
 .00001898,0.00013532,0.00018616,0.00028197,0.00004422,-0.00009043,-0.0
 0012195,-0.00060775,-0.00044891,0.00014933,0.00103000,-0.00030723,0.00
 003516,-0.13441621,-0.10583064,-0.03779349,0.00178591,-0.00571424,0.00
 548084,0.00058378,0.00747024,-0.00174531,0.00055423,-0.00217510,0.0007
 3524,-0.00007235,-0.00004961,-0.00007880,-0.00005310,0.00000706,0.0000
 2751,0.00002232,-0.00001633,0.00004631,0.00003956,-0.00001439,0.000003
 65,-0.00000419,-0.00000166,-0.00001836,-0.00000457,-0.00001781,-0.0000
 1039,-0.00002310,0.00002065,-0.00000076,-0.00006354,0.00011069,-0.0000
 0515,0.00000993,0.00009471,-0.00002555,0.14224807,0.10132699,0.0016478
 9,0.00225897,0.00166219,-0.01906392,-0.00973905,0.00694312,-0.00020242
 ,-0.00349736,-0.00506010,0.00100443,-0.00005592,-0.00003526,-0.0001942
 0,0.00029867,0.00010351,-0.00001928,-0.00003372,-0.00001430,0.00004137
 ,-0.00003233,0.00000937,-0.00008139,-0.00010038,-0.00019355,0.00000030
 ,0.00005244,0.00011327,0.00019650,0.00012240,0.00001742,-0.00011601,-0
 .00005150,0.00000487,-0.06297093,-0.04257781,-0.06654981,0.03588344,0.
 01973955,-0.00099896,0.00097222,-0.00240760,-0.00248493,-0.00157071,-0
 .00007247,-0.00004797,0.00008053,0.00005689,0.00004945,-0.00007336,-0.
 00003245,0.00001888,-0.00000578,0.00000741,-0.00000706,0.00001036,-0.0
 0000553,0.00001977,-0.00000823,0.00000867,0.00001142,0.00000692,0.0000
 1449,0.00001031,0.00000174,0.00001823,-0.00000127,-0.00003268,-0.00002
 778,-0.00002940,0.00001262,0.00000678,0.00005149,0.04360185,0.03589970
 ,0.06620206,0.00006863,0.00050377,-0.00012299,-0.00000918,-0.00052515,
 0.00090180,-0.00010132,-0.00286363,-0.00182595,0.00818675,-0.00034476,
 -0.00825446,0.00063903,0.00149033,-0.00130227,-0.00011633,-0.00023622,
 -0.00003976,0.00003990,-0.00003200,0.00003299,0.00003315,0.00001469,-0
 .00005405,0.00000748,-0.00002787,0.00003883,-0.00001634,0.00002198,-0.
 00006420,-0.00005960,0.00000910,0.00003130,0.00162526,-0.00323012,-0.0
 0452562,-0.03138903,-0.00217073,0.03023865,-0.10814200,0.00007366,0.12
 116259,0.00047788,0.00003974,-0.00055777,-0.00000172,-0.00001540,0.000
 19478,-0.00002705,-0.00019429,0.00004555,-0.00003899,0.00002031,-0.000
 05618,-0.00003013,-0.00001451,-0.00001778,-0.00030084,0.00009418,-0.00
 008138,0.00001153,0.00001310,0.00003019,0.00003270,0.00003505,-0.00003
 534,0.00000287,0.,-0.00000324,0.00000252,0.00000029,0.00000478,-0.0002
 4068,-0.00036356,0.00087873,0.12934550,0.00028100,-0.00065099,0.000647
 42,-0.00075694,0.00110254,-0.00042916,-0.00348266,0.00178204,-0.002335
 92,0.00628569,0.00275773,-0.01126528,0.00225955,-0.00165323,0.00009897
 ,0.00010301,0.00030943,0.00025404,-0.00008946,0.00009627,0.00000309,-0
 .00001268,-0.00009476,0.00011857,-0.00001650,0.00002990,-0.00005639,-0
 .00007663,-0.00017803,0.00033568,0.00029897,-0.00004588,-0.00010737,-0
 .00340044,0.00424666,-0.00222554,-0.01110951,-0.00724580,0.01803397,0.
 00266897,-0.03264279,-0.02688098,0.00052565,-0.00010913,-0.00039402,-0
 .00028820,-0.00001762,-0.00011969,-0.00046292,-0.00020109,0.00041976,0
 .00001960,-0.00002105,0.00004528,0.00007672,-0.00006655,0.00006400,0.0
 0016339,-0.00008711,0.00003061,-0.00001558,-0.00003913,-0.00005579,-0.
 00002789,-0.00006171,0.00001967,-0.00000356,0.00001804,-0.00000177,-0.
 00001317,0.00003942,-0.00001863,-0.00062846,0.00074935,0.00014967,0.00
 770204,0.03198347,0.00005122,0.00041358,0.00014388,-0.00056912,-0.0008
 7256,-0.00021292,-0.00172492,-0.00290358,-0.00178437,0.01184088,0.0019
 1483,-0.00926752,0.00092125,0.00136451,-0.00003219,-0.00024400,-0.0001
 5973,0.00004273,0.00014206,-0.00014658,-0.00015230,0.00009081,-0.00001
 963,-0.00027127,-0.00007933,0.00005450,0.00017294,0.00011428,-0.000110
 82,-0.00008027,-0.00008845,0.00003568,0.00009437,-0.00199251,-0.002297
 13,0.00292269,-0.00234816,0.00375169,0.00698849,0.13072210,-0.02452506
 ,-0.29370676,0.00067535,0.00008111,-0.00056021,-0.00002568,-0.00001084
 ,0.00026931,-0.00070446,-0.00028051,0.00037826,-0.00003698,0.00005729,
 -0.00005035,0.00005214,-0.00001766,0.00005307,-0.00018204,0.00017747,0
 .00000986,0.00000418,0.00002304,0.00009930,-0.00003007,0.00009884,0.00
 009105,-0.00002131,-0.00000246,-0.00000787,0.00000065,-0.00002349,0.00
 001299,0.00005133,-0.00027227,0.00020547,-0.13661921,0.02366979,0.2946
 4160\\0.00001300,-0.00000063,-0.00000418,0.00002260,-0.00000786,0.0000
 2982,0.00001424,0.00002879,-0.00004382,-0.00001052,-0.00000073,0.00006
 638,-0.00000775,-0.00000384,-0.00000849,-0.00001351,-0.00000469,0.0000
 0627,0.00000728,-0.00000725,-0.00001240,0.00003192,0.00001442,-0.00001
 724,-0.00003999,-0.00001288,-0.00003608,0.00013678,0.00006366,0.000020
 22,-0.00012321,-0.00003608,0.00006785,-0.00007555,-0.00000475,0.000019
 14,-0.00000379,0.00000130,-0.00005136,0.00006622,-0.00002012,-0.000010
 15,-0.00000308,-0.00000447,0.00000151,-0.00000468,-0.00000012,0.000000
 54,-0.00000380,0.00000543,-0.00000150,-0.00000066,-0.00000126,-0.00000
 675,0.00000313,0.00000358,0.00000061,0.00000856,0.00000523,0.00000002,
 0.00000117,0.00000558,-0.00000505,0.00001126,-0.00000070,-0.00001543,0
 .00001880,-0.00000662,0.00000476,-0.00002497,-0.00001846,-0.00001197,-
 0.00000806,-0.00001413,0.00001608,-0.00001540,0.00001659,-0.00000879\\
 \@


 Fatherhood is pretending the present you love most is soap-on-a-rope.
 -- Bill Cosby
 Job cpu time:       0 days  0 hours 30 minutes  7.9 seconds.
 Elapsed time:       0 days  0 hours  1 minutes 53.6 seconds.
 File lengths (MBytes):  RWF=    264 Int=      0 D2E=      0 Chk=     19 Scr=      1
 Normal termination of Gaussian 16 at Tue Jan 20 11:57:43 2026.
