 Entering Gaussian System, Link 0=g16
 Initial command:
 /root/g16/l1.exe "/root/g16/scratch/gau_root_553721/Gau-553728.inp" -scrdir="/root/g16/scratch/gau_root_553721/"
 Entering Link 1 = /root/g16/l1.exe PID=    553730.
  
 Copyright (c) 1988,1990,1992,1993,1995,1998,2003,2009,2016,
            Gaussian, Inc.  All Rights Reserved.
  
 This is part of the Gaussian(R) 16 program.  It is based on
 the Gaussian(R) 09 system (copyright 2009, Gaussian, Inc.),
 the Gaussian(R) 03 system (copyright 2003, Gaussian, Inc.),
 the Gaussian(R) 98 system (copyright 1998, Gaussian, Inc.),
 the Gaussian(R) 94 system (copyright 1995, Gaussian, Inc.),
 the Gaussian 92(TM) system (copyright 1992, Gaussian, Inc.),
 the Gaussian 90(TM) system (copyright 1990, Gaussian, Inc.),
 the Gaussian 88(TM) system (copyright 1988, Gaussian, Inc.),
 the Gaussian 86(TM) system (copyright 1986, Carnegie Mellon
 University), and the Gaussian 82(TM) system (copyright 1983,
 Carnegie Mellon University). Gaussian is a federally registered
 trademark of Gaussian, Inc.
  
 This software contains proprietary and confidential information,
 including trade secrets, belonging to Gaussian, Inc.
  
 This software is provided under written license and may be
 used, copied, transmitted, or stored only in accord with that
 written license.
  
 The following legend is applicable only to US Government
 contracts under FAR:
  
                    RESTRICTED RIGHTS LEGEND
  
 Use, reproduction and disclosure by the US Government is
 subject to restrictions as set forth in subparagraphs (a)
 and (c) of the Commercial Computer Software - Restricted
 Rights clause in FAR 52.227-19.
  
 Gaussian, Inc.
 340 Quinnipiac St., Bldg. 40, Wallingford CT 06492
  
  
 ---------------------------------------------------------------
 Warning -- This program may not be used in any manner that
 competes with the business of Gaussian, Inc. or will provide
 assistance to any competitor of Gaussian, Inc.  The licensee
 of this program is prohibited from giving any competitor of
 Gaussian, Inc. access to this program.  By using this program,
 the user acknowledges that Gaussian, Inc. is engaged in the
 business of creating and licensing software in the field of
 computational chemistry and represents and warrants to the
 licensee that it is not a competitor of Gaussian, Inc. and that
 it will not use this program in any manner prohibited above.
 ---------------------------------------------------------------
  

 Cite this work as:
 Gaussian 16, Revision A.03,
 M. J. Frisch, G. W. Trucks, H. B. Schlegel, G. E. Scuseria, 
 M. A. Robb, J. R. Cheeseman, G. Scalmani, V. Barone, 
 G. A. Petersson, H. Nakatsuji, X. Li, M. Caricato, A. V. Marenich, 
 J. Bloino, B. G. Janesko, R. Gomperts, B. Mennucci, H. P. Hratchian, 
 J. V. Ortiz, A. F. Izmaylov, J. L. Sonnenberg, D. Williams-Young, 
 F. Ding, F. Lipparini, F. Egidi, J. Goings, B. Peng, A. Petrone, 
 T. Henderson, D. Ranasinghe, V. G. Zakrzewski, J. Gao, N. Rega, 
 G. Zheng, W. Liang, M. Hada, M. Ehara, K. Toyota, R. Fukuda, 
 J. Hasegawa, M. Ishida, T. Nakajima, Y. Honda, O. Kitao, H. Nakai, 
 T. Vreven, K. Throssell, J. A. Montgomery, Jr., J. E. Peralta, 
 F. Ogliaro, M. J. Bearpark, J. J. Heyd, E. N. Brothers, K. N. Kudin, 
 V. N. Staroverov, T. A. Keith, R. Kobayashi, J. Normand, 
 K. Raghavachari, A. P. Rendell, J. C. Burant, S. S. Iyengar, 
 J. Tomasi, M. Cossi, J. M. Millam, M. Klene, C. Adamo, R. Cammi, 
 J. W. Ochterski, R. L. Martin, K. Morokuma, O. Farkas, 
 J. B. Foresman, and D. J. Fox, Gaussian, Inc., Wallingford CT, 2016.
 
 ******************************************
 Gaussian 16:  ES64L-G16RevA.03 25-Dec-2016
                24-Jan-2026 
 ******************************************
 %chk=conf_001.chk
 %mem=32GB
 %nprocshared=16
 Will use up to   16 processors via shared memory.
 --------------------------------------------------------------------
 #p B3LYP/def2SVP em=GD3BJ SCRF=(PCM,Solvent=Acetone) Opt=CalcFC Freq
 --------------------------------------------------------------------
 1/10=4,18=20,19=15,26=3,38=1/1,3;
 2/9=110,12=2,17=6,18=5,40=1/2;
 3/5=43,7=101,11=2,25=1,30=1,70=2201,71=2,72=19,74=-5,124=41,140=1/1,2,3;
 4//1;
 5/5=2,38=5,53=19/2;
 8/6=4,10=90,11=11/1;
 11/6=1,8=1,9=11,15=111,16=1/1,2,10;
 10/6=1,13=1/2;
 6/7=2,8=2,9=2,10=2,28=1/1;
 7/10=1,18=20,25=1/1,2,3,16;
 1/10=4,18=20,19=15,26=3/3(2);
 2/9=110/2;
 99//99;
 2/9=110/2;
 3/5=43,7=101,11=2,25=1,30=1,70=2205,71=1,72=19,74=-5,124=41/1,2,3;
 4/5=5,16=3,69=1/1;
 5/5=2,38=5,53=19/2;
 7//1,2,3,16;
 1/18=20,19=15,26=3/3(-5);
 2/9=110/2;
 6/7=2,8=2,9=2,10=2,19=2,28=1/1;
 99/9=1/99;
 Leave Link    1 at Sat Jan 24 09:52:33 2026, MaxMem=  4294967296 cpu:               0.3 elap:               0.0
 (Enter /root/g16/l101.exe)
 ----------------
 product_conf_001
 ----------------
 Symbolic Z-matrix:
 Charge =  0 Multiplicity = 1
 O                     2.76813   0.37993   1.52675 
 C                     1.90897   0.4336    0.66717 
 C                     0.72823   1.29042   0.74935 
 C                    -0.2336    1.21154  -0.18215 
 C                    -1.56173   1.88624  -0.12267 
 C                    -2.67131   0.90594  -0.52429 
 C                    -2.63489  -0.36469   0.32567 
 C                    -1.29771  -1.05566   0.48792 
 O                    -1.00901  -1.5754    1.54087 
 C                    -0.36802  -1.15479  -0.7225 
 C                     1.01795  -1.6903   -0.33412 
 C                     1.93759  -0.4674   -0.56706 
 O                     1.34513   0.18724  -1.66827 
 C                    -0.01476   0.24853  -1.3182 
 H                     0.64867   1.93764   1.61069 
 H                    -1.73561   2.27151   0.88311 
 H                    -1.5655    2.73314  -0.81473 
 H                    -2.5879    0.65371  -1.58093 
 H                    -3.63926   1.38785  -0.38112 
 H                    -3.31413  -1.10697  -0.10486 
 H                    -2.99271  -0.15134   1.33589 
 H                    -0.85123  -1.78273  -1.47408 
 H                     1.04144  -2.02738   0.7014 
 H                     1.32575  -2.50481  -0.98692 
 H                     2.96379  -0.73732  -0.81949 
 H                    -0.56428   0.51381  -2.2198 
 
 ITRead=  0  0  0  0  0  0  0  0  0  0  0  0  0  0  0  0  0  0  0  0
 ITRead=  0  0  0  0  0  0
 MicOpt= -1 -1 -1 -1 -1 -1 -1 -1 -1 -1 -1 -1 -1 -1 -1 -1 -1 -1 -1 -1
 MicOpt= -1 -1 -1 -1 -1 -1
 NAtoms=     26 NQM=       26 NQMF=       0 NMMI=      0 NMMIF=      0
                NMic=       0 NMicF=      0.
                    Isotopes and Nuclear Properties:
 (Nuclear quadrupole moments (NQMom) in fm**2, nuclear magnetic moments (NMagM)
  in nuclear magnetons)

  Atom         1           2           3           4           5           6           7           8           9          10
 IAtWgt=          16          12          12          12          12          12          12          12          16          12
 AtmWgt=  15.9949146  12.0000000  12.0000000  12.0000000  12.0000000  12.0000000  12.0000000  12.0000000  15.9949146  12.0000000
 NucSpn=           0           0           0           0           0           0           0           0           0           0
 AtZEff=  -0.0000000  -0.0000000  -0.0000000  -0.0000000  -0.0000000  -0.0000000  -0.0000000  -0.0000000  -0.0000000  -0.0000000
 NQMom=    0.0000000   0.0000000   0.0000000   0.0000000   0.0000000   0.0000000   0.0000000   0.0000000   0.0000000   0.0000000
 NMagM=    0.0000000   0.0000000   0.0000000   0.0000000   0.0000000   0.0000000   0.0000000   0.0000000   0.0000000   0.0000000
 AtZNuc=   8.0000000   6.0000000   6.0000000   6.0000000   6.0000000   6.0000000   6.0000000   6.0000000   8.0000000   6.0000000

  Atom        11          12          13          14          15          16          17          18          19          20
 IAtWgt=          12          12          16          12           1           1           1           1           1           1
 AtmWgt=  12.0000000  12.0000000  15.9949146  12.0000000   1.0078250   1.0078250   1.0078250   1.0078250   1.0078250   1.0078250
 NucSpn=           0           0           0           0           1           1           1           1           1           1
 AtZEff=  -0.0000000  -0.0000000  -0.0000000  -0.0000000  -0.0000000  -0.0000000  -0.0000000  -0.0000000  -0.0000000  -0.0000000
 NQMom=    0.0000000   0.0000000   0.0000000   0.0000000   0.0000000   0.0000000   0.0000000   0.0000000   0.0000000   0.0000000
 NMagM=    0.0000000   0.0000000   0.0000000   0.0000000   2.7928460   2.7928460   2.7928460   2.7928460   2.7928460   2.7928460
 AtZNuc=   6.0000000   6.0000000   8.0000000   6.0000000   1.0000000   1.0000000   1.0000000   1.0000000   1.0000000   1.0000000

  Atom        21          22          23          24          25          26
 IAtWgt=           1           1           1           1           1           1
 AtmWgt=   1.0078250   1.0078250   1.0078250   1.0078250   1.0078250   1.0078250
 NucSpn=           1           1           1           1           1           1
 AtZEff=  -0.0000000  -0.0000000  -0.0000000  -0.0000000  -0.0000000  -0.0000000
 NQMom=    0.0000000   0.0000000   0.0000000   0.0000000   0.0000000   0.0000000
 NMagM=    2.7928460   2.7928460   2.7928460   2.7928460   2.7928460   2.7928460
 AtZNuc=   1.0000000   1.0000000   1.0000000   1.0000000   1.0000000   1.0000000
 Leave Link  101 at Sat Jan 24 09:52:34 2026, MaxMem=  4294967296 cpu:               5.1 elap:               0.3
 (Enter /root/g16/l103.exe)

 GradGradGradGradGradGradGradGradGradGradGradGradGradGradGradGradGradGrad
 Berny optimization.
 Initialization pass.
                           ----------------------------
                           !    Initial Parameters    !
                           ! (Angstroms and Degrees)  !
 --------------------------                            --------------------------
 ! Name  Definition              Value          Derivative Info.                !
 --------------------------------------------------------------------------------
 ! R1    R(1,2)                  1.2165         calculate D2E/DX2 analytically  !
 ! R2    R(2,3)                  1.4612         calculate D2E/DX2 analytically  !
 ! R3    R(2,12)                 1.5284         calculate D2E/DX2 analytically  !
 ! R4    R(3,4)                  1.3413         calculate D2E/DX2 analytically  !
 ! R5    R(3,15)                 1.0803         calculate D2E/DX2 analytically  !
 ! R6    R(4,5)                  1.4909         calculate D2E/DX2 analytically  !
 ! R7    R(4,14)                 1.5053         calculate D2E/DX2 analytically  !
 ! R8    R(5,6)                  1.5341         calculate D2E/DX2 analytically  !
 ! R9    R(5,16)                 1.091          calculate D2E/DX2 analytically  !
 ! R10   R(5,17)                 1.0937         calculate D2E/DX2 analytically  !
 ! R11   R(6,7)                  1.5291         calculate D2E/DX2 analytically  !
 ! R12   R(6,18)                 1.0895         calculate D2E/DX2 analytically  !
 ! R13   R(6,19)                 1.0907         calculate D2E/DX2 analytically  !
 ! R14   R(7,8)                  1.5139         calculate D2E/DX2 analytically  !
 ! R15   R(7,20)                 1.0944         calculate D2E/DX2 analytically  !
 ! R16   R(7,21)                 1.0927         calculate D2E/DX2 analytically  !
 ! R17   R(8,9)                  1.2092         calculate D2E/DX2 analytically  !
 ! R18   R(8,10)                 1.5295         calculate D2E/DX2 analytically  !
 ! R19   R(10,11)                1.5358         calculate D2E/DX2 analytically  !
 ! R20   R(10,14)                1.5649         calculate D2E/DX2 analytically  !
 ! R21   R(10,22)                1.0921         calculate D2E/DX2 analytically  !
 ! R22   R(11,12)                1.5477         calculate D2E/DX2 analytically  !
 ! R23   R(11,23)                1.0893         calculate D2E/DX2 analytically  !
 ! R24   R(11,24)                1.0883         calculate D2E/DX2 analytically  !
 ! R25   R(12,13)                1.4115         calculate D2E/DX2 analytically  !
 ! R26   R(12,25)                1.0907         calculate D2E/DX2 analytically  !
 ! R27   R(13,14)                1.4056         calculate D2E/DX2 analytically  !
 ! R28   R(14,26)                1.0887         calculate D2E/DX2 analytically  !
 ! A1    A(1,2,3)              123.8365         calculate D2E/DX2 analytically  !
 ! A2    A(1,2,12)             122.0978         calculate D2E/DX2 analytically  !
 ! A3    A(3,2,12)             113.9689         calculate D2E/DX2 analytically  !
 ! A4    A(2,3,4)              120.3923         calculate D2E/DX2 analytically  !
 ! A5    A(2,3,15)             117.1072         calculate D2E/DX2 analytically  !
 ! A6    A(4,3,15)             122.4204         calculate D2E/DX2 analytically  !
 ! A7    A(3,4,5)              125.7678         calculate D2E/DX2 analytically  !
 ! A8    A(3,4,14)             117.2265         calculate D2E/DX2 analytically  !
 ! A9    A(5,4,14)             116.6885         calculate D2E/DX2 analytically  !
 ! A10   A(4,5,6)              110.1632         calculate D2E/DX2 analytically  !
 ! A11   A(4,5,16)             109.7903         calculate D2E/DX2 analytically  !
 ! A12   A(4,5,17)             109.1634         calculate D2E/DX2 analytically  !
 ! A13   A(6,5,16)             110.5929         calculate D2E/DX2 analytically  !
 ! A14   A(6,5,17)             109.0661         calculate D2E/DX2 analytically  !
 ! A15   A(16,5,17)            108.0196         calculate D2E/DX2 analytically  !
 ! A16   A(5,6,7)              111.607          calculate D2E/DX2 analytically  !
 ! A17   A(5,6,18)             110.2703         calculate D2E/DX2 analytically  !
 ! A18   A(5,6,19)             108.976          calculate D2E/DX2 analytically  !
 ! A19   A(7,6,18)             110.1746         calculate D2E/DX2 analytically  !
 ! A20   A(7,6,19)             108.3797         calculate D2E/DX2 analytically  !
 ! A21   A(18,6,19)            107.3089         calculate D2E/DX2 analytically  !
 ! A22   A(6,7,8)              117.379          calculate D2E/DX2 analytically  !
 ! A23   A(6,7,20)             109.2775         calculate D2E/DX2 analytically  !
 ! A24   A(6,7,21)             110.1104         calculate D2E/DX2 analytically  !
 ! A25   A(8,7,20)             106.3082         calculate D2E/DX2 analytically  !
 ! A26   A(8,7,21)             106.2165         calculate D2E/DX2 analytically  !
 ! A27   A(20,7,21)            107.0299         calculate D2E/DX2 analytically  !
 ! A28   A(7,8,9)              120.0259         calculate D2E/DX2 analytically  !
 ! A29   A(7,8,10)             118.7945         calculate D2E/DX2 analytically  !
 ! A30   A(9,8,10)             121.0744         calculate D2E/DX2 analytically  !
 ! A31   A(8,10,11)            111.779          calculate D2E/DX2 analytically  !
 ! A32   A(8,10,14)            112.3555         calculate D2E/DX2 analytically  !
 ! A33   A(8,10,22)            108.2375         calculate D2E/DX2 analytically  !
 ! A34   A(11,10,14)           101.8435         calculate D2E/DX2 analytically  !
 ! A35   A(11,10,22)           111.8913         calculate D2E/DX2 analytically  !
 ! A36   A(14,10,22)           110.703          calculate D2E/DX2 analytically  !
 ! A37   A(10,11,12)           102.865          calculate D2E/DX2 analytically  !
 ! A38   A(10,11,23)           111.5793         calculate D2E/DX2 analytically  !
 ! A39   A(10,11,24)           111.3789         calculate D2E/DX2 analytically  !
 ! A40   A(12,11,23)           112.0102         calculate D2E/DX2 analytically  !
 ! A41   A(12,11,24)           109.4526         calculate D2E/DX2 analytically  !
 ! A42   A(23,11,24)           109.4241         calculate D2E/DX2 analytically  !
 ! A43   A(2,12,11)            109.4589         calculate D2E/DX2 analytically  !
 ! A44   A(2,12,13)            110.4109         calculate D2E/DX2 analytically  !
 ! A45   A(2,12,25)            110.5113         calculate D2E/DX2 analytically  !
 ! A46   A(11,12,13)           103.5608         calculate D2E/DX2 analytically  !
 ! A47   A(11,12,25)           113.4746         calculate D2E/DX2 analytically  !
 ! A48   A(13,12,25)           109.2162         calculate D2E/DX2 analytically  !
 ! A49   A(12,13,14)           103.4159         calculate D2E/DX2 analytically  !
 ! A50   A(4,14,10)            104.6896         calculate D2E/DX2 analytically  !
 ! A51   A(4,14,13)            110.8866         calculate D2E/DX2 analytically  !
 ! A52   A(4,14,26)            113.3131         calculate D2E/DX2 analytically  !
 ! A53   A(10,14,13)           105.9088         calculate D2E/DX2 analytically  !
 ! A54   A(10,14,26)           114.8226         calculate D2E/DX2 analytically  !
 ! A55   A(13,14,26)           107.0207         calculate D2E/DX2 analytically  !
 ! D1    D(1,2,3,4)           -174.2351         calculate D2E/DX2 analytically  !
 ! D2    D(1,2,3,15)             2.5892         calculate D2E/DX2 analytically  !
 ! D3    D(12,2,3,4)             2.2469         calculate D2E/DX2 analytically  !
 ! D4    D(12,2,3,15)          179.0712         calculate D2E/DX2 analytically  !
 ! D5    D(1,2,12,11)           97.2949         calculate D2E/DX2 analytically  !
 ! D6    D(1,2,12,13)         -149.326          calculate D2E/DX2 analytically  !
 ! D7    D(1,2,12,25)          -28.3843         calculate D2E/DX2 analytically  !
 ! D8    D(3,2,12,11)          -79.2558         calculate D2E/DX2 analytically  !
 ! D9    D(3,2,12,13)           34.1233         calculate D2E/DX2 analytically  !
 ! D10   D(3,2,12,25)          155.065          calculate D2E/DX2 analytically  !
 ! D11   D(2,3,4,5)            171.2654         calculate D2E/DX2 analytically  !
 ! D12   D(2,3,4,14)            -2.0265         calculate D2E/DX2 analytically  !
 ! D13   D(15,3,4,5)            -5.3856         calculate D2E/DX2 analytically  !
 ! D14   D(15,3,4,14)         -178.6775         calculate D2E/DX2 analytically  !
 ! D15   D(3,4,5,6)           -134.788          calculate D2E/DX2 analytically  !
 ! D16   D(3,4,5,16)           -12.7598         calculate D2E/DX2 analytically  !
 ! D17   D(3,4,5,17)           105.4756         calculate D2E/DX2 analytically  !
 ! D18   D(14,4,5,6)            38.536          calculate D2E/DX2 analytically  !
 ! D19   D(14,4,5,16)          160.5642         calculate D2E/DX2 analytically  !
 ! D20   D(14,4,5,17)          -81.2004         calculate D2E/DX2 analytically  !
 ! D21   D(3,4,14,10)           78.8888         calculate D2E/DX2 analytically  !
 ! D22   D(3,4,14,13)          -34.898          calculate D2E/DX2 analytically  !
 ! D23   D(3,4,14,26)         -155.2694         calculate D2E/DX2 analytically  !
 ! D24   D(5,4,14,10)          -95.0217         calculate D2E/DX2 analytically  !
 ! D25   D(5,4,14,13)          151.1915         calculate D2E/DX2 analytically  !
 ! D26   D(5,4,14,26)           30.8201         calculate D2E/DX2 analytically  !
 ! D27   D(4,5,6,7)             54.885          calculate D2E/DX2 analytically  !
 ! D28   D(4,5,6,18)           -67.9155         calculate D2E/DX2 analytically  !
 ! D29   D(4,5,6,19)           174.5432         calculate D2E/DX2 analytically  !
 ! D30   D(16,5,6,7)           -66.667          calculate D2E/DX2 analytically  !
 ! D31   D(16,5,6,18)          170.5325         calculate D2E/DX2 analytically  !
 ! D32   D(16,5,6,19)           52.9912         calculate D2E/DX2 analytically  !
 ! D33   D(17,5,6,7)           174.6803         calculate D2E/DX2 analytically  !
 ! D34   D(17,5,6,18)           51.8798         calculate D2E/DX2 analytically  !
 ! D35   D(17,5,6,19)          -65.6614         calculate D2E/DX2 analytically  !
 ! D36   D(5,6,7,8)            -48.7266         calculate D2E/DX2 analytically  !
 ! D37   D(5,6,7,20)          -169.8005         calculate D2E/DX2 analytically  !
 ! D38   D(5,6,7,21)            72.9107         calculate D2E/DX2 analytically  !
 ! D39   D(18,6,7,8)            74.1286         calculate D2E/DX2 analytically  !
 ! D40   D(18,6,7,20)          -46.9453         calculate D2E/DX2 analytically  !
 ! D41   D(18,6,7,21)         -164.2341         calculate D2E/DX2 analytically  !
 ! D42   D(19,6,7,8)          -168.7363         calculate D2E/DX2 analytically  !
 ! D43   D(19,6,7,20)           70.1898         calculate D2E/DX2 analytically  !
 ! D44   D(19,6,7,21)          -47.099          calculate D2E/DX2 analytically  !
 ! D45   D(6,7,8,9)            143.34           calculate D2E/DX2 analytically  !
 ! D46   D(6,7,8,10)           -40.3486         calculate D2E/DX2 analytically  !
 ! D47   D(20,7,8,9)           -94.0514         calculate D2E/DX2 analytically  !
 ! D48   D(20,7,8,10)           82.26           calculate D2E/DX2 analytically  !
 ! D49   D(21,7,8,9)            19.7072         calculate D2E/DX2 analytically  !
 ! D50   D(21,7,8,10)         -163.9814         calculate D2E/DX2 analytically  !
 ! D51   D(7,8,10,11)          171.4157         calculate D2E/DX2 analytically  !
 ! D52   D(7,8,10,14)           57.6314         calculate D2E/DX2 analytically  !
 ! D53   D(7,8,10,22)          -64.9151         calculate D2E/DX2 analytically  !
 ! D54   D(9,8,10,11)          -12.313          calculate D2E/DX2 analytically  !
 ! D55   D(9,8,10,14)         -126.0973         calculate D2E/DX2 analytically  !
 ! D56   D(9,8,10,22)          111.3562         calculate D2E/DX2 analytically  !
 ! D57   D(8,10,11,12)        -112.5012         calculate D2E/DX2 analytically  !
 ! D58   D(8,10,11,23)           7.7457         calculate D2E/DX2 analytically  !
 ! D59   D(8,10,11,24)         130.3532         calculate D2E/DX2 analytically  !
 ! D60   D(14,10,11,12)          7.6499         calculate D2E/DX2 analytically  !
 ! D61   D(14,10,11,23)        127.8969         calculate D2E/DX2 analytically  !
 ! D62   D(14,10,11,24)       -109.4956         calculate D2E/DX2 analytically  !
 ! D63   D(22,10,11,12)        125.9148         calculate D2E/DX2 analytically  !
 ! D64   D(22,10,11,23)       -113.8383         calculate D2E/DX2 analytically  !
 ! D65   D(22,10,11,24)          8.7692         calculate D2E/DX2 analytically  !
 ! D66   D(8,10,14,4)           22.9895         calculate D2E/DX2 analytically  !
 ! D67   D(8,10,14,13)         140.2453         calculate D2E/DX2 analytically  !
 ! D68   D(8,10,14,26)        -101.9024         calculate D2E/DX2 analytically  !
 ! D69   D(11,10,14,4)         -96.756          calculate D2E/DX2 analytically  !
 ! D70   D(11,10,14,13)         20.4997         calculate D2E/DX2 analytically  !
 ! D71   D(11,10,14,26)        138.3521         calculate D2E/DX2 analytically  !
 ! D72   D(22,10,14,4)         144.1326         calculate D2E/DX2 analytically  !
 ! D73   D(22,10,14,13)        -98.6116         calculate D2E/DX2 analytically  !
 ! D74   D(22,10,14,26)         19.2407         calculate D2E/DX2 analytically  !
 ! D75   D(10,11,12,2)          84.2298         calculate D2E/DX2 analytically  !
 ! D76   D(10,11,12,13)        -33.526          calculate D2E/DX2 analytically  !
 ! D77   D(10,11,12,25)       -151.812          calculate D2E/DX2 analytically  !
 ! D78   D(23,11,12,2)         -35.7198         calculate D2E/DX2 analytically  !
 ! D79   D(23,11,12,13)       -153.4756         calculate D2E/DX2 analytically  !
 ! D80   D(23,11,12,25)         88.2384         calculate D2E/DX2 analytically  !
 ! D81   D(24,11,12,2)        -157.2661         calculate D2E/DX2 analytically  !
 ! D82   D(24,11,12,13)         84.9781         calculate D2E/DX2 analytically  !
 ! D83   D(24,11,12,25)        -33.3079         calculate D2E/DX2 analytically  !
 ! D84   D(2,12,13,14)         -69.0565         calculate D2E/DX2 analytically  !
 ! D85   D(11,12,13,14)         48.0338         calculate D2E/DX2 analytically  !
 ! D86   D(25,12,13,14)        169.2331         calculate D2E/DX2 analytically  !
 ! D87   D(12,13,14,4)          69.8007         calculate D2E/DX2 analytically  !
 ! D88   D(12,13,14,10)        -43.2154         calculate D2E/DX2 analytically  !
 ! D89   D(12,13,14,26)       -166.1567         calculate D2E/DX2 analytically  !
 --------------------------------------------------------------------------------
 Trust Radius=3.00D-01 FncErr=1.00D-07 GrdErr=1.00D-06 EigMax=2.50D+02 EigMin=1.00D-04
 Number of steps in this run=    156 maximum allowed number of steps=    156.
 GradGradGradGradGradGradGradGradGradGradGradGradGradGradGradGradGradGrad

 Leave Link  103 at Sat Jan 24 09:52:34 2026, MaxMem=  4294967296 cpu:               0.3 elap:               0.0
 (Enter /root/g16/l202.exe)
                          Input orientation:                          
 ---------------------------------------------------------------------
 Center     Atomic      Atomic             Coordinates (Angstroms)
 Number     Number       Type             X           Y           Z
 ---------------------------------------------------------------------
      1          8           0        2.768131    0.379933    1.526749
      2          6           0        1.908968    0.433604    0.667166
      3          6           0        0.728235    1.290423    0.749352
      4          6           0       -0.233600    1.211536   -0.182147
      5          6           0       -1.561728    1.886240   -0.122674
      6          6           0       -2.671311    0.905937   -0.524292
      7          6           0       -2.634892   -0.364692    0.325668
      8          6           0       -1.297711   -1.055663    0.487916
      9          8           0       -1.009006   -1.575398    1.540870
     10          6           0       -0.368021   -1.154787   -0.722503
     11          6           0        1.017948   -1.690305   -0.334121
     12          6           0        1.937586   -0.467405   -0.567059
     13          8           0        1.345126    0.187243   -1.668271
     14          6           0       -0.014763    0.248532   -1.318202
     15          1           0        0.648671    1.937636    1.610690
     16          1           0       -1.735615    2.271512    0.883106
     17          1           0       -1.565501    2.733140   -0.814733
     18          1           0       -2.587900    0.653714   -1.580933
     19          1           0       -3.639256    1.387848   -0.381124
     20          1           0       -3.314134   -1.106969   -0.104860
     21          1           0       -2.992715   -0.151343    1.335886
     22          1           0       -0.851227   -1.782728   -1.474081
     23          1           0        1.041439   -2.027380    0.701397
     24          1           0        1.325746   -2.504807   -0.986924
     25          1           0        2.963790   -0.737319   -0.819486
     26          1           0       -0.564281    0.513806   -2.219804
 ---------------------------------------------------------------------
                    Distance matrix (angstroms):
                    1          2          3          4          5
     1  O    0.000000
     2  C    1.216522   0.000000
     3  C    2.365273   1.461173   0.000000
     4  C    3.552785   2.432511   1.341282   0.000000
     5  C    4.872087   3.844441   2.521776   1.490868   0.000000
     6  C    5.837035   4.756220   3.650604   2.480502   1.534101
     7  C    5.584775   4.626074   3.772205   2.916946   2.533651
     8  C    4.435220   3.540175   3.110775   2.592587   3.016176
     9  O    4.253267   3.648838   3.443463   3.367053   3.880183
    10  C    4.153306   3.104649   3.057317   2.430954   3.321532
    11  C    3.288139   2.511470   3.184743   3.163882   4.414874
    12  C    2.406619   1.528380   2.507075   2.771470   4.240556
    13  O    3.502888   2.415135   2.728088   2.397940   3.704762
    14  C    3.981898   2.770682   2.431535   1.505287   2.550388
    15  H    2.631653   2.177315   1.080332   2.126003   2.809458
    16  H    4.927076   4.087484   2.655368   2.124703   1.090992
    17  H    5.458982   4.422197   3.128740   2.118821   1.093709
    18  H    6.198364   5.032318   4.102728   2.794727   2.167642
    19  H    6.760953   5.726455   4.512476   3.416017   2.152049
    20  H    6.470470   5.500017   4.776810   3.856311   3.468508
    21  H    5.788439   4.981550   4.033382   3.431411   2.885631
    22  H    5.175117   4.137118   4.108846   3.319063   3.973971
    23  H    3.075358   2.609640   3.332899   3.591233   4.772001
    24  H    4.089101   3.422048   4.216093   4.109797   5.325948
    25  H    2.606022   2.166528   3.401573   3.798360   5.277207
    26  H    5.015930   3.802366   3.330108   2.179042   2.697486
                    6          7          8          9         10
     6  C    0.000000
     7  C    1.529136   0.000000
     8  C    2.599849   1.513875   0.000000
     9  O    3.631140   2.363479   1.209210   0.000000
    10  C    3.096936   2.619469   1.529465   2.389693   0.000000
    11  C    4.515226   3.941549   2.537871   2.763573   1.535750
    12  C    4.809348   4.659942   3.453428   3.788590   2.410909
    13  O    4.237567   4.485640   3.630227   4.352864   2.372845
    14  C    2.849513   3.153320   2.570787   3.534054   1.564913
    15  H    4.079808   4.211149   3.742841   3.885122   4.005063
    16  H    2.172807   2.840600   3.379057   3.969802   4.023409
    17  H    2.155421   3.469967   4.015424   4.941867   4.069206
    18  H    1.089525   2.162056   2.977700   4.148193   2.989221
    19  H    1.090712   2.140023   3.494110   4.403760   4.157224
    20  H    2.154283   1.094395   2.102375   2.870796   3.010540
    21  H    2.163655   1.092747   2.099973   2.450521   3.483229
    22  H    3.382858   2.903685   2.139487   3.026188   1.092094
    23  H    4.887860   4.052297   2.541934   2.261266   2.185288
    24  H    5.274814   4.689311   3.340314   3.564353   2.182045
    25  H    5.877226   5.726732   4.468896   4.696463   3.359263
    26  H    2.732783   3.396854   3.214483   4.324954   2.250474
                   11         12         13         14         15
    11  C    0.000000
    12  C    1.547733   0.000000
    13  O    2.326411   1.411468   0.000000
    14  C    2.407072   2.210983   1.405561   0.000000
    15  H    4.132869   3.491148   3.781602   3.445523   0.000000
    16  H    4.975916   4.805939   4.510506   3.449571   2.515089
    17  H    5.145100   4.751468   3.960034   2.971792   3.379062
    18  H    4.477846   4.771255   3.961555   2.618060   4.723379
    19  H    5.582721   5.880281   5.286044   3.913197   4.759822
    20  H    4.377188   5.310672   5.082120   3.767683   5.283612
    21  H    4.608985   5.294238   5.287387   4.009025   4.207022
    22  H    2.191316   3.214070   2.956766   2.202269   5.060298
    23  H    1.089251   2.201268   3.257623   3.220888   4.086861
    24  H    1.088258   2.168327   2.777002   3.080192   5.190503
    25  H    2.220374   1.090719   2.048249   3.176853   4.291959
    26  H    3.304142   3.154945   2.014117   1.088681   4.262772
                   16         17         18         19         20
    16  H    0.000000
    17  H    1.767681   0.000000
    18  H    3.068412   2.440568   0.000000
    19  H    2.450100   2.509639   1.756088   0.000000
    20  H    3.857711   4.278793   2.409609   2.531034   0.000000
    21  H    2.766864   3.870703   3.052839   2.394837   1.758488
    22  H    4.772352   4.619307   2.993944   4.361217   2.897815
    23  H    5.121086   5.635364   5.056619   5.894449   4.524182
    24  H    5.973455   5.985402   5.064161   6.338059   4.925493
    25  H    5.834063   5.706013   5.773736   6.950446   6.329270
    26  H    3.753612   2.811069   2.126679   3.687840   3.829046
                   21         22         23         24         25
    21  H    0.000000
    22  H    3.891440   0.000000
    23  H    4.494050   2.893915   0.000000
    24  H    5.439057   2.344767   1.777412   0.000000
    25  H    6.361520   4.009455   2.769978   2.415623   0.000000
    26  H    4.356908   2.431566   4.191584   3.768849   3.996684
                   26
    26  H    0.000000
 Stoichiometry    C11H12O3
 Framework group  C1[X(C11H12O3)]
 Deg. of freedom    72
 Full point group                 C1      NOp   1
 Largest Abelian subgroup         C1      NOp   1
 Largest concise Abelian subgroup C1      NOp   1
                         Standard orientation:                         
 ---------------------------------------------------------------------
 Center     Atomic      Atomic             Coordinates (Angstroms)
 Number     Number       Type             X           Y           Z
 ---------------------------------------------------------------------
      1          8           0        2.855146   -0.377797   -1.483811
      2          6           0        1.950288   -0.494345   -0.679092
      3          6           0        0.702728   -1.203366   -0.954612
      4          6           0       -0.296023   -1.192324   -0.059395
      5          6           0       -1.674846   -1.712269   -0.285648
      6          6           0       -2.710664   -0.711640    0.242829
      7          6           0       -2.514119    0.676968   -0.366592
      8          6           0       -1.113060    1.250311   -0.355191
      9          8           0       -0.722972    1.913290   -1.288185
     10          6           0       -0.243712    1.046423    0.886553
     11          6           0        1.203755    1.501725    0.649770
     12          6           0        1.995025    0.172334    0.695493
     13          8           0        1.288068   -0.601250    1.641019
     14          6           0       -0.051289   -0.466668    1.236528
     15          1           0        0.610574   -1.680800   -1.919331
     16          1           0       -1.829382   -1.898723   -1.349423
     17          1           0       -1.792117   -2.661539    0.244759
     18          1           0       -2.660869   -0.655447    1.329764
     19          1           0       -3.709372   -1.063693   -0.018502
     20          1           0       -3.145103    1.396901    0.163745
     21          1           0       -2.835743    0.677901   -1.410935
     22          1           0       -0.707140    1.579449    1.719491
     23          1           0        1.312604    2.008838   -0.308070
     24          1           0        1.549114    2.156662    1.447323
     25          1           0        3.026646    0.291993    1.028822
     26          1           0       -0.669639   -0.828384    2.056304
 ---------------------------------------------------------------------
 Rotational constants (GHZ):           1.1849394           0.6825456           0.6321483
 Leave Link  202 at Sat Jan 24 09:52:34 2026, MaxMem=  4294967296 cpu:               0.3 elap:               0.0
 (Enter /root/g16/l301.exe)
 Standard basis: def2SVP (5D, 7F)
 Ernie: Thresh=  0.10000D-02 Tol=  0.10000D-05 Strict=F.
 There are   270 symmetry adapted cartesian basis functions of A   symmetry.
 There are   256 symmetry adapted basis functions of A   symmetry.
   256 basis functions,   434 primitive gaussians,   270 cartesian basis functions
    51 alpha electrons       51 beta electrons
       nuclear repulsion energy       956.4503589361 Hartrees.
 IExCor=  402 DFT=T Ex+Corr=B3LYP ExCW=0 ScaHFX=  0.200000
 ScaDFX=  0.800000  0.720000  1.000000  0.810000 ScalE2=  1.000000  1.000000
 IRadAn=      5 IRanWt=     -1 IRanGd=            0 ICorTp=0 IEmpDi=141
 NAtoms=   26 NActive=   26 NUniq=   26 SFac= 1.00D+00 NAtFMM=   60 NAOKFM=F Big=F
 Integral buffers will be    131072 words long.
 Raffenetti 2 integral format.
 Two-electron integral symmetry is turned on.
 R6Disp:  Grimme-D3(BJ) Dispersion energy=       -0.0582733965 Hartrees.
 Nuclear repulsion after empirical dispersion term =      956.3920855396 Hartrees.
 Force inversion solution in PCM.
 ------------------------------------------------------------------------------
 Polarizable Continuum Model (PCM)
 =================================
 Model                : PCM.
 Atomic radii         : UFF (Universal Force Field).
 Polarization charges : Total charges.
 Charge compensation  : None.
 Solution method      : Matrix inversion.
 Cavity type          : Scaled VdW (van der Waals Surface) (Alpha=1.100).
 Cavity algorithm     : GePol (No added spheres)
                        Default sphere list used, NSphG=   26.
                        Lebedev-Laikov grids with approx.  5.0 points / Ang**2.
                        Smoothing algorithm: York/Karplus (Gamma=1.0000).
                        Polarization charges: spherical gaussians, with
                                              point-specific exponents (IZeta= 3).
                        Self-potential: point-specific (ISelfS= 7).
                        Self-field    : sphere-specific E.n sum rule (ISelfD= 2).
 1st derivatives      : Analytical E(r).r(x)/FMM algorithm (CHGder, D1EAlg=3).
                        Cavity 1st derivative terms included.
 2nd derivatives      : Analytical E(r).r(xy)/FMM algorithm (CHGder, D2EAlg=3).
                        Cavity 2nd derivative terms included.
 Solvent              : Acetone, Eps=  20.493000 Eps(inf)=   1.846337
 ------------------------------------------------------------------------------
 GePol: Number of generator spheres                  =      26
 GePol: Total number of spheres                      =      26
 GePol: Number of exposed spheres                    =      26 (100.00%)
 GePol: Number of points                             =    1814
 GePol: Average weight of points                     =       0.13
 GePol: Minimum weight of points                     =   0.23D-10
 GePol: Maximum weight of points                     =    0.20577
 GePol: Number of points with low weight             =     119
 GePol: Fraction of low-weight points (<1% of avg)   =       6.56%
 GePol: Cavity surface area                          =    235.118 Ang**2
 GePol: Cavity volume                                =    255.350 Ang**3
 Leave Link  301 at Sat Jan 24 09:52:34 2026, MaxMem=  4294967296 cpu:               0.4 elap:               0.0
 (Enter /root/g16/l302.exe)
 NPDir=0 NMtPBC=     1 NCelOv=     1 NCel=       1 NClECP=     1 NCelD=      1
         NCelK=      1 NCelE2=     1 NClLst=     1 CellRange=     0.0.
 One-electron integrals computed using PRISM.
 One-electron integral symmetry used in STVInt
   1 Symmetry operations used in ECPInt.
 ECPInt:  NShTT=    7260 NPrTT=   26324 LenC2=    7150 LenP2D=   19996.
 LDataN:  DoStor=T MaxTD1= 4 Len=   56
 NBasis=   256 RedAO= T EigKep=  3.17D-04  NBF=   256
 NBsUse=   256 1.00D-06 EigRej= -1.00D+00 NBFU=   256
 Precomputing XC quadrature grid using
 IXCGrd= 4 IRadAn=           5 IRanWt=          -1 IRanGd=           0 AccXCQ= 0.00D+00.
 Generated NRdTot=       0 NPtTot=           0 NUsed=           0 NTot=          32
 NSgBfM=   270   270   270   270   270 MxSgAt=    26 MxSgA2=    26.
 Leave Link  302 at Sat Jan 24 09:52:34 2026, MaxMem=  4294967296 cpu:               1.9 elap:               0.1
 (Enter /root/g16/l303.exe)
 DipDrv:  MaxL=1.
 Leave Link  303 at Sat Jan 24 09:52:34 2026, MaxMem=  4294967296 cpu:               0.2 elap:               0.0
 (Enter /root/g16/l401.exe)
 ExpMin= 1.22D-01 ExpMax= 2.27D+03 ExpMxC= 3.41D+02 IAcc=3 IRadAn=         5 AccDes= 0.00D+00
 Harris functional with IExCor=  402 and IRadAn=       5 diagonalized for initial guess.
 HarFok:  IExCor=  402 AccDes= 0.00D+00 IRadAn=         5 IDoV= 1 UseB2=F ITyADJ=14
 ICtDFT=  3500011 ScaDFX=  1.000000  1.000000  1.000000  1.000000
 FoFCou: FMM=F IPFlag=           0 FMFlag=      100000 FMFlg1=           0
         NFxFlg=           0 DoJE=T BraDBF=F KetDBF=T FulRan=T
         wScrn=  0.000000 ICntrl=       500 IOpCl=  0 I1Cent=   200000004 NGrid=           0
         NMat0=    1 NMatS0=      1 NMatT0=    0 NMatD0=    1 NMtDS0=    0 NMtDT0=    0
 Petite list used in FoFCou.
 Harris En= -651.603690467787    
 JPrj=0 DoOrth=F DoCkMO=F.
 Leave Link  401 at Sat Jan 24 09:52:34 2026, MaxMem=  4294967296 cpu:               6.6 elap:               0.4
 (Enter /root/g16/l502.exe)
 Integral symmetry usage will be decided dynamically.
 Closed shell SCF:
 Using DIIS extrapolation, IDIIS=  1040.
 NGot=  4294967296 LenX=  4294814202 LenY=  4294740861
 Requested convergence on RMS density matrix=1.00D-08 within 128 cycles.
 Requested convergence on MAX density matrix=1.00D-06.
 Requested convergence on             energy=1.00D-06.
 No special actions if energy rises.
 Fock matrices will be formed incrementally for  20 cycles.

 Cycle   1  Pass 1  IDiag  1:
 FoFJK:  IHMeth= 1 ICntrl=       0 DoSepK=F KAlg= 0 I1Cent=           0 FoldK=F
 IRaf= 960000000 NMat=       1 IRICut=       1 DoRegI=T DoRafI=F ISym2E= 0 IDoP0=0 IntGTp=1.
 FoFCou: FMM=F IPFlag=           0 FMFlag=      100000 FMFlg1=           0
         NFxFlg=           0 DoJE=F BraDBF=F KetDBF=F FulRan=T
         wScrn=  0.000000 ICntrl=         0 IOpCl=  0 I1Cent=           0 NGrid=           0
         NMat0=    1 NMatS0=      1 NMatT0=    0 NMatD0=    1 NMtDS0=    0 NMtDT0=    0
 Symmetry not used in FoFCou.
 Inv3:  Mode=1 IEnd=     9871788.
 Iteration    1 A*A^-1 deviation from unit magnitude is 3.11D-15 for   1652.
 Iteration    1 A*A^-1 deviation from orthogonality  is 1.33D-15 for   1383    893.
 Iteration    1 A^-1*A deviation from unit magnitude is 2.89D-15 for    901.
 Iteration    1 A^-1*A deviation from orthogonality  is 2.66D-15 for   1652   1528.
 E= -651.335302968408    
 DIIS: error= 2.09D-02 at cycle   1 NSaved=   1.
 NSaved= 1 IEnMin= 1 EnMin= -651.335302968408     IErMin= 1 ErrMin= 2.09D-02
 ErrMax= 2.09D-02  0.00D+00 EMaxC= 1.00D-01 BMatC= 3.07D-01 BMatP= 3.07D-01
 IDIUse=3 WtCom= 7.91D-01 WtEn= 2.09D-01
 Coeff-Com:  0.100D+01
 Coeff-En:   0.100D+01
 Coeff:      0.100D+01
 Gap=     0.144 Goal=   None    Shift=    0.000
 GapD=    0.144 DampG=1.000 DampE=0.500 DampFc=0.5000 IDamp=-1.
 Damping current iteration by 5.00D-01
 RMSDP=7.33D-03 MaxDP=3.59D-01              OVMax= 1.74D-01

 Cycle   2  Pass 1  IDiag  1:
 RMSU=  3.66D-03    CP:  9.91D-01
 E= -651.442706703716     Delta-E=       -0.107403735308 Rises=F Damp=T
 DIIS: error= 7.03D-03 at cycle   2 NSaved=   2.
 NSaved= 2 IEnMin= 2 EnMin= -651.442706703716     IErMin= 2 ErrMin= 7.03D-03
 ErrMax= 7.03D-03  0.00D+00 EMaxC= 1.00D-01 BMatC= 3.38D-02 BMatP= 3.07D-01
 IDIUse=3 WtCom= 9.30D-01 WtEn= 7.03D-02
 Coeff-Com:  0.162D+00 0.838D+00
 Coeff-En:   0.226D+00 0.774D+00
 Coeff:      0.166D+00 0.834D+00
 Gap=     0.192 Goal=   None    Shift=    0.000
 RMSDP=2.24D-03 MaxDP=1.23D-01 DE=-1.07D-01 OVMax= 1.40D-01

 Cycle   3  Pass 1  IDiag  1:
 RMSU=  2.10D-03    CP:  9.65D-01  8.55D-01
 E= -651.590772994926     Delta-E=       -0.148066291211 Rises=F Damp=F
 DIIS: error= 8.66D-03 at cycle   3 NSaved=   3.
 NSaved= 3 IEnMin= 3 EnMin= -651.590772994926     IErMin= 2 ErrMin= 7.03D-03
 ErrMax= 8.66D-03  0.00D+00 EMaxC= 1.00D-01 BMatC= 3.69D-02 BMatP= 3.38D-02
 IDIUse=3 WtCom= 9.13D-01 WtEn= 8.66D-02
 Coeff-Com:  0.277D-01 0.510D+00 0.462D+00
 Coeff-En:   0.000D+00 0.000D+00 0.100D+01
 Coeff:      0.253D-01 0.466D+00 0.509D+00
 Gap=     0.175 Goal=   None    Shift=    0.000
 RMSDP=1.32D-03 MaxDP=4.80D-02 DE=-1.48D-01 OVMax= 6.22D-02

 Cycle   4  Pass 1  IDiag  1:
 RMSU=  9.35D-04    CP:  9.76D-01  9.94D-01  6.51D-01
 E= -651.617582721964     Delta-E=       -0.026809727038 Rises=F Damp=F
 DIIS: error= 3.37D-03 at cycle   4 NSaved=   4.
 NSaved= 4 IEnMin= 4 EnMin= -651.617582721964     IErMin= 4 ErrMin= 3.37D-03
 ErrMax= 3.37D-03  0.00D+00 EMaxC= 1.00D-01 BMatC= 6.26D-03 BMatP= 3.38D-02
 IDIUse=3 WtCom= 9.66D-01 WtEn= 3.37D-02
 Coeff-Com:  0.243D-02 0.128D+00 0.311D+00 0.559D+00
 Coeff-En:   0.000D+00 0.000D+00 0.172D+00 0.828D+00
 Coeff:      0.235D-02 0.123D+00 0.306D+00 0.568D+00
 Gap=     0.176 Goal=   None    Shift=    0.000
 RMSDP=5.64D-04 MaxDP=2.42D-02 DE=-2.68D-02 OVMax= 2.27D-02

 Cycle   5  Pass 1  IDiag  1:
 RMSU=  2.21D-04    CP:  9.72D-01  9.25D-01  7.34D-01  5.63D-01
 E= -651.622857826108     Delta-E=       -0.005275104144 Rises=F Damp=F
 DIIS: error= 4.59D-04 at cycle   5 NSaved=   5.
 NSaved= 5 IEnMin= 5 EnMin= -651.622857826108     IErMin= 5 ErrMin= 4.59D-04
 ErrMax= 4.59D-04  0.00D+00 EMaxC= 1.00D-01 BMatC= 1.54D-04 BMatP= 6.26D-03
 IDIUse=3 WtCom= 9.95D-01 WtEn= 4.59D-03
 Coeff-Com: -0.516D-03 0.201D-01 0.100D+00 0.246D+00 0.634D+00
 Coeff-En:   0.000D+00 0.000D+00 0.000D+00 0.000D+00 0.100D+01
 Coeff:     -0.513D-03 0.200D-01 0.996D-01 0.245D+00 0.636D+00
 Gap=     0.174 Goal=   None    Shift=    0.000
 RMSDP=9.60D-05 MaxDP=3.76D-03 DE=-5.28D-03 OVMax= 9.15D-03

 Cycle   6  Pass 1  IDiag  1:
 RMSU=  5.92D-05    CP:  9.72D-01  9.32D-01  7.35D-01  6.09D-01  7.47D-01
 E= -651.622966813110     Delta-E=       -0.000108987002 Rises=F Damp=F
 DIIS: error= 2.60D-04 at cycle   6 NSaved=   6.
 NSaved= 6 IEnMin= 6 EnMin= -651.622966813110     IErMin= 6 ErrMin= 2.60D-04
 ErrMax= 2.60D-04  0.00D+00 EMaxC= 1.00D-01 BMatC= 4.50D-05 BMatP= 1.54D-04
 IDIUse=3 WtCom= 9.97D-01 WtEn= 2.60D-03
 Coeff-Com: -0.421D-03-0.282D-03 0.320D-01 0.965D-01 0.404D+00 0.469D+00
 Coeff-En:   0.000D+00 0.000D+00 0.000D+00 0.000D+00 0.236D+00 0.764D+00
 Coeff:     -0.420D-03-0.281D-03 0.320D-01 0.963D-01 0.403D+00 0.469D+00
 Gap=     0.175 Goal=   None    Shift=    0.000
 RMSDP=3.30D-05 MaxDP=1.61D-03 DE=-1.09D-04 OVMax= 3.82D-03

 Cycle   7  Pass 1  IDiag  1:
 RMSU=  1.39D-05    CP:  9.72D-01  9.33D-01  7.36D-01  6.06D-01  7.75D-01
                    CP:  5.10D-01
 E= -651.623012398373     Delta-E=       -0.000045585263 Rises=F Damp=F
 DIIS: error= 4.22D-05 at cycle   7 NSaved=   7.
 NSaved= 7 IEnMin= 7 EnMin= -651.623012398373     IErMin= 7 ErrMin= 4.22D-05
 ErrMax= 4.22D-05  0.00D+00 EMaxC= 1.00D-01 BMatC= 1.25D-06 BMatP= 4.50D-05
 IDIUse=1 WtCom= 1.00D+00 WtEn= 0.00D+00
 Coeff-Com: -0.131D-03-0.134D-02 0.987D-02 0.318D-01 0.160D+00 0.227D+00
 Coeff-Com:  0.573D+00
 Coeff:     -0.131D-03-0.134D-02 0.987D-02 0.318D-01 0.160D+00 0.227D+00
 Coeff:      0.573D+00
 Gap=     0.175 Goal=   None    Shift=    0.000
 RMSDP=6.66D-06 MaxDP=2.09D-04 DE=-4.56D-05 OVMax= 3.49D-04

 Cycle   8  Pass 1  IDiag  1:
 RMSU=  4.41D-06    CP:  9.72D-01  9.32D-01  7.37D-01  6.08D-01  7.74D-01
                    CP:  5.14D-01  6.93D-01
 E= -651.623013496391     Delta-E=       -0.000001098018 Rises=F Damp=F
 DIIS: error= 1.05D-05 at cycle   8 NSaved=   8.
 NSaved= 8 IEnMin= 8 EnMin= -651.623013496391     IErMin= 8 ErrMin= 1.05D-05
 ErrMax= 1.05D-05  0.00D+00 EMaxC= 1.00D-01 BMatC= 1.01D-07 BMatP= 1.25D-06
 IDIUse=1 WtCom= 1.00D+00 WtEn= 0.00D+00
 Coeff-Com:  0.147D-04-0.672D-03 0.170D-02 0.560D-02 0.375D-01 0.608D-01
 Coeff-Com:  0.261D+00 0.634D+00
 Coeff:      0.147D-04-0.672D-03 0.170D-02 0.560D-02 0.375D-01 0.608D-01
 Coeff:      0.261D+00 0.634D+00
 Gap=     0.175 Goal=   None    Shift=    0.000
 RMSDP=2.27D-06 MaxDP=1.36D-04 DE=-1.10D-06 OVMax= 5.60D-05

 Cycle   9  Pass 1  IDiag  1:
 RMSU=  1.43D-06    CP:  9.72D-01  9.32D-01  7.37D-01  6.07D-01  7.78D-01
                    CP:  5.23D-01  7.21D-01  7.37D-01
 E= -651.623013574183     Delta-E=       -0.000000077792 Rises=F Damp=F
 DIIS: error= 5.83D-06 at cycle   9 NSaved=   9.
 NSaved= 9 IEnMin= 9 EnMin= -651.623013574183     IErMin= 9 ErrMin= 5.83D-06
 ErrMax= 5.83D-06  0.00D+00 EMaxC= 1.00D-01 BMatC= 1.57D-08 BMatP= 1.01D-07
 IDIUse=1 WtCom= 1.00D+00 WtEn= 0.00D+00
 Coeff-Com:  0.233D-04-0.293D-03 0.278D-03 0.826D-03 0.967D-02 0.166D-01
 Coeff-Com:  0.101D+00 0.354D+00 0.518D+00
 Coeff:      0.233D-04-0.293D-03 0.278D-03 0.826D-03 0.967D-02 0.166D-01
 Coeff:      0.101D+00 0.354D+00 0.518D+00
 Gap=     0.175 Goal=   None    Shift=    0.000
 RMSDP=7.55D-07 MaxDP=3.50D-05 DE=-7.78D-08 OVMax= 2.60D-05

 Cycle  10  Pass 1  IDiag  1:
 RMSU=  4.94D-07    CP:  9.72D-01  9.32D-01  7.37D-01  6.07D-01  7.78D-01
                    CP:  5.22D-01  7.27D-01  7.83D-01  6.64D-01
 E= -651.623013584651     Delta-E=       -0.000000010468 Rises=F Damp=F
 DIIS: error= 2.88D-06 at cycle  10 NSaved=  10.
 NSaved=10 IEnMin=10 EnMin= -651.623013584651     IErMin=10 ErrMin= 2.88D-06
 ErrMax= 2.88D-06  0.00D+00 EMaxC= 1.00D-01 BMatC= 2.44D-09 BMatP= 1.57D-08
 IDIUse=1 WtCom= 1.00D+00 WtEn= 0.00D+00
 Coeff-Com:  0.148D-04-0.719D-04-0.110D-03-0.469D-03-0.287D-03-0.495D-03
 Coeff-Com:  0.182D-01 0.110D+00 0.315D+00 0.558D+00
 Coeff:      0.148D-04-0.719D-04-0.110D-03-0.469D-03-0.287D-03-0.495D-03
 Coeff:      0.182D-01 0.110D+00 0.315D+00 0.558D+00
 Gap=     0.175 Goal=   None    Shift=    0.000
 RMSDP=3.02D-07 MaxDP=1.40D-05 DE=-1.05D-08 OVMax= 1.04D-05

 Cycle  11  Pass 1  IDiag  1:
 RMSU=  1.75D-07    CP:  9.72D-01  9.32D-01  7.37D-01  6.07D-01  7.78D-01
                    CP:  5.22D-01  7.29D-01  7.95D-01  7.12D-01  6.09D-01
 E= -651.623013586528     Delta-E=       -0.000000001876 Rises=F Damp=F
 DIIS: error= 6.17D-07 at cycle  11 NSaved=  11.
 NSaved=11 IEnMin=11 EnMin= -651.623013586528     IErMin=11 ErrMin= 6.17D-07
 ErrMax= 6.17D-07  0.00D+00 EMaxC= 1.00D-01 BMatC= 1.90D-10 BMatP= 2.44D-09
 IDIUse=1 WtCom= 1.00D+00 WtEn= 0.00D+00
 Coeff-Com:  0.655D-05-0.141D-04-0.766D-04-0.316D-03-0.903D-03-0.179D-02
 Coeff-Com:  0.104D-02 0.270D-01 0.120D+00 0.297D+00 0.558D+00
 Coeff:      0.655D-05-0.141D-04-0.766D-04-0.316D-03-0.903D-03-0.179D-02
 Coeff:      0.104D-02 0.270D-01 0.120D+00 0.297D+00 0.558D+00
 Gap=     0.175 Goal=   None    Shift=    0.000
 RMSDP=8.34D-08 MaxDP=3.47D-06 DE=-1.88D-09 OVMax= 2.73D-06

 Cycle  12  Pass 1  IDiag  1:
 RMSU=  5.64D-08    CP:  9.72D-01  9.32D-01  7.37D-01  6.07D-01  7.78D-01
                    CP:  5.21D-01  7.30D-01  8.00D-01  7.18D-01  6.72D-01
                    CP:  7.80D-01
 E= -651.623013586661     Delta-E=       -0.000000000133 Rises=F Damp=F
 DIIS: error= 1.92D-07 at cycle  12 NSaved=  12.
 NSaved=12 IEnMin=12 EnMin= -651.623013586661     IErMin=12 ErrMin= 1.92D-07
 ErrMax= 1.92D-07  0.00D+00 EMaxC= 1.00D-01 BMatC= 1.87D-11 BMatP= 1.90D-10
 IDIUse=1 WtCom= 1.00D+00 WtEn= 0.00D+00
 Coeff-Com:  0.143D-05 0.133D-05-0.223D-04-0.984D-04-0.392D-03-0.895D-03
 Coeff-Com: -0.174D-02-0.131D-02 0.188D-01 0.803D-01 0.282D+00 0.623D+00
 Coeff:      0.143D-05 0.133D-05-0.223D-04-0.984D-04-0.392D-03-0.895D-03
 Coeff:     -0.174D-02-0.131D-02 0.188D-01 0.803D-01 0.282D+00 0.623D+00
 Gap=     0.175 Goal=   None    Shift=    0.000
 RMSDP=2.67D-08 MaxDP=8.67D-07 DE=-1.33D-10 OVMax= 7.79D-07

 Cycle  13  Pass 1  IDiag  1:
 RMSU=  1.51D-08    CP:  9.72D-01  9.32D-01  7.37D-01  6.07D-01  7.78D-01
                    CP:  5.21D-01  7.30D-01  8.00D-01  7.25D-01  6.86D-01
                    CP:  8.07D-01  7.92D-01
 E= -651.623013586683     Delta-E=       -0.000000000021 Rises=F Damp=F
 DIIS: error= 3.63D-08 at cycle  13 NSaved=  13.
 NSaved=13 IEnMin=13 EnMin= -651.623013586683     IErMin=13 ErrMin= 3.63D-08
 ErrMax= 3.63D-08  0.00D+00 EMaxC= 1.00D-01 BMatC= 1.29D-12 BMatP= 1.87D-11
 IDIUse=1 WtCom= 1.00D+00 WtEn= 0.00D+00
 Coeff-Com:  0.318D-06 0.116D-05-0.422D-05-0.233D-04-0.104D-03-0.289D-03
 Coeff-Com: -0.730D-03-0.220D-02 0.943D-03 0.178D-01 0.908D-01 0.287D+00
 Coeff-Com:  0.606D+00
 Coeff:      0.318D-06 0.116D-05-0.422D-05-0.233D-04-0.104D-03-0.289D-03
 Coeff:     -0.730D-03-0.220D-02 0.943D-03 0.178D-01 0.908D-01 0.287D+00
 Coeff:      0.606D+00
 Gap=     0.175 Goal=   None    Shift=    0.000
 RMSDP=7.02D-09 MaxDP=2.18D-07 DE=-2.15D-11 OVMax= 2.69D-07

 Error on total polarization charges =  0.00873
 SCF Done:  E(RB3LYP) =  -651.623013587     A.U. after   13 cycles
            NFock= 13  Conv=0.70D-08     -V/T= 2.0094
 KE= 6.455404568788D+02 PE=-3.430013619372D+03 EE= 1.176458063367D+03
 Leave Link  502 at Sat Jan 24 09:52:49 2026, MaxMem=  4294967296 cpu:             255.9 elap:              15.0
 (Enter /root/g16/l801.exe)
 DoSCS=F DFT=T ScalE2(SS,OS)=  1.000000  1.000000
 Range of M.O.s used for correlation:     1   256
 NBasis=   256 NAE=    51 NBE=    51 NFC=     0 NFV=     0
 NROrb=    256 NOA=    51 NOB=    51 NVA=   205 NVB=   205
 Leave Link  801 at Sat Jan 24 09:52:49 2026, MaxMem=  4294967296 cpu:               0.1 elap:               0.0
 (Enter /root/g16/l1101.exe)
 Using compressed storage, NAtomX=    26.
 Will process     27 centers per pass.
   1 Symmetry operations used in ECPInt.
 ECPInt:  NShTT=    7260 NPrTT=   26324 LenC2=    7150 LenP2D=   19996.
 LDataN:  DoStor=T MaxTD1= 5 Len=  102
 R6Disp: Adding Grimme-D3(BJ) dispersion energy 1st derivatives to the gradient.
 Leave Link 1101 at Sat Jan 24 09:52:50 2026, MaxMem=  4294967296 cpu:               2.9 elap:               0.2
 (Enter /root/g16/l1102.exe)
 Symmetrizing basis deriv contribution to polar:
 IMax=3 JMax=2 DiffMx= 0.00D+00
 Leave Link 1102 at Sat Jan 24 09:52:50 2026, MaxMem=  4294967296 cpu:               0.2 elap:               0.0
 (Enter /root/g16/l1110.exe)
 Forming Gx(P) for the SCF density, NAtomX=    26.
 Integral derivatives from FoFJK, PRISM(SPDF).
 Do as many integral derivatives as possible in FoFJK.
 G2DrvN: MDV=    4294965288.
 G2DrvN: will do    27 centers at a time, making    1 passes.
 Calling FoFCou, ICntrl=  3107 FMM=F I1Cent=   0 AccDes= 0.00D+00.
 FoFJK:  IHMeth= 1 ICntrl=    3107 DoSepK=F KAlg= 0 I1Cent=           0 FoldK=F
 IRaf=         0 NMat=       1 IRICut=       1 DoRegI=T DoRafI=F ISym2E= 0 IDoP0=0 IntGTp=1.
 FoFCou: FMM=F IPFlag=           0 FMFlag=      100000 FMFlg1=           0
         NFxFlg=           0 DoJE=F BraDBF=F KetDBF=F FulRan=T
         wScrn=  0.000000 ICntrl=      3107 IOpCl=  0 I1Cent=           0 NGrid=           0
         NMat0=    1 NMatS0=      1 NMatT0=    0 NMatD0=    1 NMtDS0=    0 NMtDT0=    0
 Symmetry not used in FoFCou.
 NEqPCM:  Using equilibrium solvation (IEInf=0, Eps=  20.4930, EpsInf=   1.8463)
 G2PCM: DoFxE=T DoFxN=T DoGrad=T DoDP/DQ/DG/TGxP=FFFF NFrqRd=   0 IEInf=0 SqF1=F DoCFld=F IF1Alg=4.
 GePol: Maximum number of non-zero 1st derivatives   =     222
 End of G2Drv F.D. properties file   721 does not exist.
 End of G2Drv F.D. properties file   722 does not exist.
 End of G2Drv F.D. properties file   788 does not exist.
 Leave Link 1110 at Sat Jan 24 09:53:13 2026, MaxMem=  4294967296 cpu:             368.3 elap:              23.9
 (Enter /root/g16/l1002.exe)
 Minotr:  Closed shell wavefunction.
          IDoAtm=11111111111111111111111111
 NEqPCM:  Using equilibrium solvation (IEInf=0, Eps=  20.4930, EpsInf=   1.8463)
          Direct CPHF calculation.
          Differentiating once with respect to nuclear coordinates.
          Requested convergence is 1.0D-08 RMS, and 1.0D-07 maximum.
          Secondary convergence is 1.0D-12 RMS, and 1.0D-12 maximum.
          NewPWx=T KeepS1=F KeepF1=F KeepIn=T MapXYZ=F SortEE=F KeepMc=T.
         7770 words used for storage of precomputed grid.
 Keep R1 ints in memory in canonical form, NReq=558668842.
 FoFCou: FMM=F IPFlag=           0 FMFlag=           0 FMFlg1=           0
         NFxFlg=           0 DoJE=F BraDBF=F KetDBF=F FulRan=T
         wScrn=  0.000000 ICntrl=       600 IOpCl=  0 I1Cent=           0 NGrid=           0
         NMat0=    1 NMatS0=  32896 NMatT0=    0 NMatD0=    1 NMtDS0=    0 NMtDT0=    0
 Symmetry not used in FoFCou.
 Two-electron integral symmetry not used.
          MDV=    4294967296 using IRadAn=       1.
          Solving linear equations simultaneously, MaxMat=       0.
          There are    81 degrees of freedom in the 1st order CPHF.  IDoFFX=6 NUNeed=     0.
     75 vectors produced by pass  0 Test12= 1.29D-14 1.23D-09 XBig12= 1.45D-01 9.77D-02.
 AX will form    75 AO Fock derivatives at one time.
     75 vectors produced by pass  1 Test12= 1.29D-14 1.23D-09 XBig12= 3.43D-02 6.02D-02.
     75 vectors produced by pass  2 Test12= 1.29D-14 1.23D-09 XBig12= 3.59D-04 2.62D-03.
     75 vectors produced by pass  3 Test12= 1.29D-14 1.23D-09 XBig12= 1.71D-06 1.83D-04.
     75 vectors produced by pass  4 Test12= 1.29D-14 1.23D-09 XBig12= 5.26D-09 6.71D-06.
     53 vectors produced by pass  5 Test12= 1.29D-14 1.23D-09 XBig12= 5.87D-12 1.91D-07.
     10 vectors produced by pass  6 Test12= 1.29D-14 1.23D-09 XBig12= 5.38D-15 6.08D-09.
 InvSVY:  IOpt=1 It=  1 EMax= 3.89D-16
 Solved reduced A of dimension   438 with    81 vectors.
 End of Minotr F.D. properties file   721 does not exist.
 End of Minotr F.D. properties file   722 does not exist.
 End of Minotr F.D. properties file   788 does not exist.
 Leave Link 1002 at Sat Jan 24 09:53:46 2026, MaxMem=  4294967296 cpu:             509.9 elap:              32.1
 (Enter /root/g16/l601.exe)
 Copying SCF densities to generalized density rwf, IOpCl= 0 IROHF=0.

 **********************************************************************

            Population analysis using the SCF density.

 **********************************************************************

 Orbital symmetries:
       Occupied  (A) (A) (A) (A) (A) (A) (A) (A) (A) (A) (A) (A)
                 (A) (A) (A) (A) (A) (A) (A) (A) (A) (A) (A) (A)
                 (A) (A) (A) (A) (A) (A) (A) (A) (A) (A) (A) (A)
                 (A) (A) (A) (A) (A) (A) (A) (A) (A) (A) (A) (A)
                 (A) (A) (A)
       Virtual   (A) (A) (A) (A) (A) (A) (A) (A) (A) (A) (A) (A)
                 (A) (A) (A) (A) (A) (A) (A) (A) (A) (A) (A) (A)
                 (A) (A) (A) (A) (A) (A) (A) (A) (A) (A) (A) (A)
                 (A) (A) (A) (A) (A) (A) (A) (A) (A) (A) (A) (A)
                 (A) (A) (A) (A) (A) (A) (A) (A) (A) (A) (A) (A)
                 (A) (A) (A) (A) (A) (A) (A) (A) (A) (A) (A) (A)
                 (A) (A) (A) (A) (A) (A) (A) (A) (A) (A) (A) (A)
                 (A) (A) (A) (A) (A) (A) (A) (A) (A) (A) (A) (A)
                 (A) (A) (A) (A) (A) (A) (A) (A) (A) (A) (A) (A)
                 (A) (A) (A) (A) (A) (A) (A) (A) (A) (A) (A) (A)
                 (A) (A) (A) (A) (A) (A) (A) (A) (A) (A) (A) (A)
                 (A) (A) (A) (A) (A) (A) (A) (A) (A) (A) (A) (A)
                 (A) (A) (A) (A) (A) (A) (A) (A) (A) (A) (A) (A)
                 (A) (A) (A) (A) (A) (A) (A) (A) (A) (A) (A) (A)
                 (A) (A) (A) (A) (A) (A) (A) (A) (A) (A) (A) (A)
                 (A) (A) (A) (A) (A) (A) (A) (A) (A) (A) (A) (A)
                 (A) (A) (A) (A) (A) (A) (A) (A) (A) (A) (A) (A)
                 (A)
 The electronic state is 1-A.
 Alpha  occ. eigenvalues --  -19.15127 -19.13491 -19.12684 -10.28372 -10.27260
 Alpha  occ. eigenvalues --  -10.25654 -10.24293 -10.22290 -10.20998 -10.20153
 Alpha  occ. eigenvalues --  -10.19931 -10.19581 -10.19424 -10.19400  -1.06883
 Alpha  occ. eigenvalues --   -1.04597  -1.03114  -0.85663  -0.79779  -0.79145
 Alpha  occ. eigenvalues --   -0.76308  -0.72417  -0.64540  -0.63940  -0.62602
 Alpha  occ. eigenvalues --   -0.57630  -0.54701  -0.53994  -0.51683  -0.50368
 Alpha  occ. eigenvalues --   -0.48527  -0.47355  -0.46688  -0.45211  -0.43785
 Alpha  occ. eigenvalues --   -0.42694  -0.42391  -0.41143  -0.40994  -0.38810
 Alpha  occ. eigenvalues --   -0.38640  -0.37494  -0.36659  -0.36408  -0.35440
 Alpha  occ. eigenvalues --   -0.34732  -0.33657  -0.29877  -0.27457  -0.26074
 Alpha  occ. eigenvalues --   -0.24279
 Alpha virt. eigenvalues --   -0.06803  -0.02303   0.03995   0.05106   0.06387
 Alpha virt. eigenvalues --    0.08429   0.09254   0.10788   0.11286   0.12336
 Alpha virt. eigenvalues --    0.12390   0.13821   0.14555   0.14919   0.16624
 Alpha virt. eigenvalues --    0.16864   0.16963   0.19472   0.20253   0.21816
 Alpha virt. eigenvalues --    0.22464   0.23869   0.24604   0.25601   0.26605
 Alpha virt. eigenvalues --    0.28487   0.30189   0.33397   0.34095   0.36070
 Alpha virt. eigenvalues --    0.38218   0.40736   0.42768   0.44152   0.45073
 Alpha virt. eigenvalues --    0.46175   0.48746   0.49747   0.51195   0.51498
 Alpha virt. eigenvalues --    0.53210   0.54652   0.55199   0.56693   0.57740
 Alpha virt. eigenvalues --    0.57898   0.58986   0.60204   0.60326   0.60902
 Alpha virt. eigenvalues --    0.62211   0.63384   0.64103   0.64222   0.64978
 Alpha virt. eigenvalues --    0.65392   0.65849   0.66711   0.67329   0.67505
 Alpha virt. eigenvalues --    0.67900   0.68258   0.68887   0.70034   0.70543
 Alpha virt. eigenvalues --    0.71051   0.72871   0.73437   0.75274   0.75360
 Alpha virt. eigenvalues --    0.77418   0.80103   0.83178   0.83710   0.85544
 Alpha virt. eigenvalues --    0.85833   0.88599   0.89476   0.95356   0.96593
 Alpha virt. eigenvalues --    0.97635   0.99179   1.02871   1.05360   1.08429
 Alpha virt. eigenvalues --    1.10425   1.13288   1.16065   1.18294   1.18709
 Alpha virt. eigenvalues --    1.20295   1.21019   1.26252   1.26500   1.29397
 Alpha virt. eigenvalues --    1.32893   1.34468   1.37200   1.38221   1.40949
 Alpha virt. eigenvalues --    1.42022   1.44798   1.48656   1.49732   1.52816
 Alpha virt. eigenvalues --    1.53246   1.55724   1.56234   1.58997   1.61070
 Alpha virt. eigenvalues --    1.64174   1.66750   1.67887   1.69383   1.69936
 Alpha virt. eigenvalues --    1.71730   1.73845   1.74561   1.74896   1.76058
 Alpha virt. eigenvalues --    1.77372   1.78047   1.78310   1.79085   1.80119
 Alpha virt. eigenvalues --    1.81808   1.82974   1.84617   1.85136   1.85936
 Alpha virt. eigenvalues --    1.87553   1.87917   1.88873   1.91096   1.91702
 Alpha virt. eigenvalues --    1.92699   1.93522   1.95869   1.97154   1.98702
 Alpha virt. eigenvalues --    1.99671   2.00742   2.02422   2.04071   2.08475
 Alpha virt. eigenvalues --    2.09516   2.10169   2.13909   2.14647   2.16047
 Alpha virt. eigenvalues --    2.19193   2.20325   2.22903   2.24727   2.25668
 Alpha virt. eigenvalues --    2.27028   2.31409   2.32179   2.33578   2.34559
 Alpha virt. eigenvalues --    2.37471   2.39148   2.41013   2.43234   2.45302
 Alpha virt. eigenvalues --    2.47265   2.51513   2.52193   2.54838   2.59228
 Alpha virt. eigenvalues --    2.59396   2.62400   2.63419   2.65033   2.67223
 Alpha virt. eigenvalues --    2.69970   2.70894   2.72887   2.75420   2.75965
 Alpha virt. eigenvalues --    2.78530   2.82120   2.83231   2.87150   2.89825
 Alpha virt. eigenvalues --    2.91273   2.92909   2.93224   2.96813   3.00330
 Alpha virt. eigenvalues --    3.02704   3.04071   3.05964   3.06524   3.08187
 Alpha virt. eigenvalues --    3.14055   3.16107   3.18032   3.22782   3.31625
 Alpha virt. eigenvalues --    3.37920   3.40677   3.58792   3.61763   3.63730
          Condensed to atoms (all electrons):
               1          2          3          4          5          6
     1  O    7.671246   0.721170  -0.095044   0.006580  -0.000088   0.000002
     2  C    0.721170   4.856383   0.211733   0.079041   0.008149  -0.000383
     3  C   -0.095044   0.211733   5.443208   0.243784  -0.052165   0.001688
     4  C    0.006580   0.079041   0.243784   5.600239   0.323441  -0.028421
     5  C   -0.000088   0.008149  -0.052165   0.323441   4.629430   0.392509
     6  C    0.000002  -0.000383   0.001688  -0.028421   0.392509   4.675571
     7  C   -0.000001  -0.000359   0.002712  -0.018837  -0.076882   0.360471
     8  C    0.000049   0.005791   0.004578   0.004059  -0.010210  -0.040458
     9  O    0.000004   0.000850   0.001635  -0.007835   0.001188   0.003704
    10  C   -0.000131  -0.033002  -0.007701   0.008598  -0.016556   0.024146
    11  C    0.001250  -0.044201   0.019905  -0.056803  -0.000208  -0.000915
    12  C   -0.087425   0.213871  -0.160277   0.007932  -0.001283   0.000438
    13  O    0.001497  -0.025912  -0.003682  -0.050468   0.005116  -0.000334
    14  C    0.000778  -0.038131   0.010899   0.156759  -0.051236   0.000101
    15  H    0.005648  -0.050910   0.414731  -0.062697  -0.020513   0.000379
    16  H   -0.000006   0.000349  -0.018181  -0.007012   0.357247  -0.023559
    17  H    0.000002  -0.000596   0.001663   0.007017   0.328659  -0.003142
    18  H    0.000000   0.000064  -0.000509  -0.030884  -0.000162   0.342061
    19  H   -0.000000   0.000023  -0.000195   0.009961  -0.011790   0.346706
    20  H   -0.000000  -0.000007   0.000109   0.000210   0.008327   0.001548
    21  H    0.000000   0.000066  -0.000845  -0.004998   0.002785  -0.016065
    22  H   -0.000009   0.000128   0.000584   0.002691   0.001471  -0.005564
    23  H    0.002958   0.003766  -0.001473   0.000838   0.000152  -0.000256
    24  H   -0.000223   0.006878  -0.001372   0.001320  -0.000056   0.000043
    25  H    0.008686  -0.017833   0.012222   0.000963   0.000120  -0.000012
    26  H    0.000014   0.000996   0.007479  -0.025188  -0.007328  -0.002042
               7          8          9         10         11         12
     1  O   -0.000001   0.000049   0.000004  -0.000131   0.001250  -0.087425
     2  C   -0.000359   0.005791   0.000850  -0.033002  -0.044201   0.213871
     3  C    0.002712   0.004578   0.001635  -0.007701   0.019905  -0.160277
     4  C   -0.018837   0.004059  -0.007835   0.008598  -0.056803   0.007932
     5  C   -0.076882  -0.010210   0.001188  -0.016556  -0.000208  -0.001283
     6  C    0.360471  -0.040458   0.003704   0.024146  -0.000915   0.000438
     7  C    4.907503   0.348620  -0.089803  -0.212512   0.013382  -0.000438
     8  C    0.348620   4.884976   0.735374   0.054552   0.007712  -0.011989
     9  O   -0.089803   0.735374   7.660297  -0.142168   0.007059  -0.002283
    10  C   -0.212512   0.054552  -0.142168   5.916094   0.233659  -0.021870
    11  C    0.013382   0.007712   0.007059   0.233659   4.683446   0.342752
    12  C   -0.000438  -0.011989  -0.002283  -0.021870   0.342752   5.114735
    13  O    0.000113   0.003162  -0.000027  -0.067281  -0.057068   0.251307
    14  C    0.011110   0.003838   0.006919   0.135934  -0.013787  -0.070484
    15  H    0.000042   0.000285   0.000184  -0.001828  -0.000510   0.016522
    16  H    0.000011  -0.004854  -0.000056  -0.001731   0.000129  -0.000205
    17  H    0.009144  -0.000122  -0.000017   0.001668  -0.000101   0.000273
    18  H   -0.002795  -0.014965  -0.000118  -0.003295   0.000238  -0.000146
    19  H   -0.002575   0.007943  -0.000157  -0.000310   0.000011  -0.000007
    20  H    0.314670   0.007509   0.001235   0.004095  -0.000041  -0.000036
    21  H    0.311201  -0.001736   0.010840   0.017543  -0.000711   0.000017
    22  H    0.007816   0.010949   0.001919   0.242447   0.021036  -0.001630
    23  H    0.003694  -0.017473   0.031096  -0.008679   0.322294  -0.007388
    24  H   -0.000497   0.006348   0.000555   0.005658   0.320836   0.011113
    25  H    0.000030  -0.000754  -0.000042   0.012373  -0.011748   0.327293
    26  H    0.001825  -0.002553  -0.000169   0.004035   0.007472   0.004830
              13         14         15         16         17         18
     1  O    0.001497   0.000778   0.005648  -0.000006   0.000002   0.000000
     2  C   -0.025912  -0.038131  -0.050910   0.000349  -0.000596   0.000064
     3  C   -0.003682   0.010899   0.414731  -0.018181   0.001663  -0.000509
     4  C   -0.050468   0.156759  -0.062697  -0.007012   0.007017  -0.030884
     5  C    0.005116  -0.051236  -0.020513   0.357247   0.328659  -0.000162
     6  C   -0.000334   0.000101   0.000379  -0.023559  -0.003142   0.342061
     7  C    0.000113   0.011110   0.000042   0.000011   0.009144  -0.002795
     8  C    0.003162   0.003838   0.000285  -0.004854  -0.000122  -0.014965
     9  O   -0.000027   0.006919   0.000184  -0.000056  -0.000017  -0.000118
    10  C   -0.067281   0.135934  -0.001828  -0.001731   0.001668  -0.003295
    11  C   -0.057068  -0.013787  -0.000510   0.000129  -0.000101   0.000238
    12  C    0.251307  -0.070484   0.016522  -0.000205   0.000273  -0.000146
    13  O    7.995619   0.331168  -0.000854  -0.000178   0.000148   0.000032
    14  C    0.331168   4.851394   0.010931   0.013081  -0.009839   0.024479
    15  H   -0.000854   0.010931   0.699532   0.006750   0.000738  -0.000016
    16  H   -0.000178   0.013081   0.006750   0.692255  -0.023172   0.008127
    17  H    0.000148  -0.009839   0.000738  -0.023172   0.660074  -0.009802
    18  H    0.000032   0.024479  -0.000016   0.008127  -0.009802   0.687081
    19  H   -0.000002  -0.000903  -0.000041  -0.009025  -0.004074  -0.019331
    20  H    0.000000  -0.000899   0.000001  -0.000143  -0.000383  -0.010685
    21  H    0.000008  -0.000241  -0.000044   0.003573  -0.000179   0.007714
    22  H    0.001835   0.032392   0.000034   0.000036   0.000016   0.001453
    23  H    0.004139   0.001439  -0.000253  -0.000004  -0.000003   0.000019
    24  H    0.002058  -0.002038   0.000044   0.000000   0.000001  -0.000014
    25  H   -0.017675   0.000487  -0.000552  -0.000003   0.000002   0.000001
    26  H   -0.021543   0.348111  -0.000321  -0.000222   0.003549  -0.002227
              19         20         21         22         23         24
     1  O   -0.000000  -0.000000   0.000000  -0.000009   0.002958  -0.000223
     2  C    0.000023  -0.000007   0.000066   0.000128   0.003766   0.006878
     3  C   -0.000195   0.000109  -0.000845   0.000584  -0.001473  -0.001372
     4  C    0.009961   0.000210  -0.004998   0.002691   0.000838   0.001320
     5  C   -0.011790   0.008327   0.002785   0.001471   0.000152  -0.000056
     6  C    0.346706   0.001548  -0.016065  -0.005564  -0.000256   0.000043
     7  C   -0.002575   0.314670   0.311201   0.007816   0.003694  -0.000497
     8  C    0.007943   0.007509  -0.001736   0.010949  -0.017473   0.006348
     9  O   -0.000157   0.001235   0.010840   0.001919   0.031096   0.000555
    10  C   -0.000310   0.004095   0.017543   0.242447  -0.008679   0.005658
    11  C    0.000011  -0.000041  -0.000711   0.021036   0.322294   0.320836
    12  C   -0.000007  -0.000036   0.000017  -0.001630  -0.007388   0.011113
    13  O   -0.000002   0.000000   0.000008   0.001835   0.004139   0.002058
    14  C   -0.000903  -0.000899  -0.000241   0.032392   0.001439  -0.002038
    15  H   -0.000041   0.000001  -0.000044   0.000034  -0.000253   0.000044
    16  H   -0.009025  -0.000143   0.003573   0.000036  -0.000004   0.000000
    17  H   -0.004074  -0.000383  -0.000179   0.000016  -0.000003   0.000001
    18  H   -0.019331  -0.010685   0.007714   0.001453   0.000019  -0.000014
    19  H    0.675984  -0.003580  -0.013376   0.000035   0.000006  -0.000000
    20  H   -0.003580   0.644063  -0.010305  -0.000067  -0.000170   0.000021
    21  H   -0.013376  -0.010305   0.684060  -0.000347  -0.000132   0.000013
    22  H    0.000035  -0.000067  -0.000347   0.668117   0.004157  -0.015398
    23  H    0.000006  -0.000170  -0.000132   0.004157   0.668223  -0.022224
    24  H   -0.000000   0.000021   0.000013  -0.015398  -0.022224   0.682810
    25  H    0.000000  -0.000000  -0.000001  -0.000092   0.004108  -0.017129
    26  H   -0.000084   0.000016  -0.000035  -0.014236  -0.000554  -0.000023
              25         26
     1  O    0.008686   0.000014
     2  C   -0.017833   0.000996
     3  C    0.012222   0.007479
     4  C    0.000963  -0.025188
     5  C    0.000120  -0.007328
     6  C   -0.000012  -0.002042
     7  C    0.000030   0.001825
     8  C   -0.000754  -0.002553
     9  O   -0.000042  -0.000169
    10  C    0.012373   0.004035
    11  C   -0.011748   0.007472
    12  C    0.327293   0.004830
    13  O   -0.017675  -0.021543
    14  C    0.000487   0.348111
    15  H   -0.000552  -0.000321
    16  H   -0.000003  -0.000222
    17  H    0.000002   0.003549
    18  H    0.000001  -0.002227
    19  H    0.000000  -0.000084
    20  H   -0.000000   0.000016
    21  H   -0.000001  -0.000035
    22  H   -0.000092  -0.014236
    23  H    0.004108  -0.000554
    24  H   -0.017129  -0.000023
    25  H    0.692740  -0.000434
    26  H   -0.000434   0.685930
 Mulliken charges:
               1
     1  O   -0.236955
     2  C    0.102075
     3  C   -0.035484
     4  C   -0.160290
     5  C    0.189882
     6  C   -0.028214
     7  C    0.112353
     8  C    0.019370
     9  O   -0.220183
    10  C   -0.143737
    11  C    0.204909
    12  C    0.074380
    13  O   -0.351176
    14  C    0.247737
    15  H   -0.017282
    16  H    0.006793
    17  H    0.038476
    18  H    0.023683
    19  H    0.024781
    20  H    0.044510
    21  H    0.011193
    22  H    0.040230
    23  H    0.011722
    24  H    0.021272
    25  H    0.007253
    26  H    0.012704
 Sum of Mulliken charges =  -0.00000
 Mulliken charges with hydrogens summed into heavy atoms:
               1
     1  O   -0.236955
     2  C    0.102075
     3  C   -0.052766
     4  C   -0.160290
     5  C    0.235150
     6  C    0.020249
     7  C    0.168056
     8  C    0.019370
     9  O   -0.220183
    10  C   -0.103507
    11  C    0.237903
    12  C    0.081632
    13  O   -0.351176
    14  C    0.260441
 APT charges:
               1
     1  O    0.690360
     2  C   -0.856631
     3  C   -0.566405
     4  C   -0.236357
     5  C   -0.487588
     6  C   -0.681224
     7  C   -0.527003
     8  C   -0.788595
     9  O    0.224380
    10  C   -0.393107
    11  C   -0.462082
    12  C   -0.471126
    13  O   -0.125492
    14  C   -0.469633
    15  H    0.408839
    16  H    0.325529
    17  H    0.487894
    18  H    0.196429
    19  H    0.662253
    20  H    0.517075
    21  H    0.355994
    22  H    0.457596
    23  H    0.195761
    24  H    0.523551
    25  H    0.583075
    26  H    0.436509
 Sum of APT charges =  -0.00000
 APT charges with hydrogens summed into heavy atoms:
               1
     1  O    0.690360
     2  C   -0.856631
     3  C   -0.157566
     4  C   -0.236357
     5  C    0.325835
     6  C    0.177457
     7  C    0.346066
     8  C   -0.788595
     9  O    0.224380
    10  C    0.064489
    11  C    0.257229
    12  C    0.111948
    13  O   -0.125492
    14  C   -0.033124
 Electronic spatial extent (au):  <R**2>=           2137.4123
 Charge=             -0.0000 electrons
 Dipole moment (field-independent basis, Debye):
    X=             -6.2990    Y=             -1.0828    Z=              3.9468  Tot=              7.5118
 Quadrupole moment (field-independent basis, Debye-Ang):
   XX=            -82.9737   YY=            -81.7483   ZZ=            -86.9987
   XY=              5.6176   XZ=              3.6871   YZ=              7.2044
 Traceless Quadrupole moment (field-independent basis, Debye-Ang):
   XX=              0.9332   YY=              2.1586   ZZ=             -3.0918
   XY=              5.6176   XZ=              3.6871   YZ=              7.2044
 Octapole moment (field-independent basis, Debye-Ang**2):
  XXX=            -43.3273  YYY=             -6.4648  ZZZ=              5.0332  XYY=             -1.0012
  XXY=              7.9381  XXZ=             23.5063  XZZ=            -15.6436  YZZ=             -2.0329
  YYZ=              9.5849  XYZ=             -2.1332
 Hexadecapole moment (field-independent basis, Debye-Ang**3):
 XXXX=          -1543.7056 YYYY=           -720.4541 ZZZZ=           -542.3550 XXXY=              9.5888
 XXXZ=             81.8810 YYYX=              7.5736 YYYZ=             15.1205 ZZZX=              0.2772
 ZZZY=             10.2562 XXYY=           -355.7591 XXZZ=           -376.6072 YYZZ=           -211.0066
 XXYZ=             -0.6363 YYXZ=            -10.9169 ZZXY=             15.3389
 N-N= 9.563920855396D+02 E-N=-3.430013611425D+03  KE= 6.455404568788D+02
  Exact polarizability:   0.000   0.000   0.000   0.000   0.000   0.000
 Approx polarizability: 200.759  12.648 145.101 -33.756  -5.318 173.150
 No NMR shielding tensors so no spin-rotation constants.
 Leave Link  601 at Sat Jan 24 09:53:46 2026, MaxMem=  4294967296 cpu:               1.4 elap:               0.1
 (Enter /root/g16/l701.exe)
 ... and contract with generalized density number  0.
 Compute integral second derivatives.
 R6Disp: Adding Grimme-D3(BJ) dispersion energy 2nd derivatives to the Hessian.
   1 Symmetry operations used in ECPInt.
 ECPInt:  NShTT=    7260 NPrTT=   26324 LenC2=    7150 LenP2D=   19996.
 LDataN:  DoStor=T MaxTD1= 6 Len=  172
 D2PCM: PCM CHGder 2nd derivatives, FixD1E=F FixD2E=F DoIter=F DoCFld=F I1PDM=0
 GePol: Maximum number of non-zero 2nd derivatives   =     222
 Leave Link  701 at Sat Jan 24 09:53:48 2026, MaxMem=  4294967296 cpu:              36.3 elap:               2.1
 (Enter /root/g16/l702.exe)
 L702 exits ... SP integral derivatives will be done elsewhere.
 Leave Link  702 at Sat Jan 24 09:53:48 2026, MaxMem=  4294967296 cpu:               0.1 elap:               0.0
 (Enter /root/g16/l703.exe)
 Integral derivatives from FoFJK, PRISM(SPDF).
 Compute integral second derivatives, UseDBF=F ICtDFT=           0.
 Calling FoFJK, ICntrl=    100147 FMM=F ISym2X=0 I1Cent= 0 IOpClX= 0 NMat=1 NMatS=1 NMatT=0.
 FoFJK:  IHMeth= 1 ICntrl=  100147 DoSepK=F KAlg= 0 I1Cent=           0 FoldK=F
 IRaf=         0 NMat=       1 IRICut=       1 DoRegI=T DoRafI=F ISym2E= 0 IDoP0=0 IntGTp=1.
 FoFCou: FMM=F IPFlag=           0 FMFlag=      100000 FMFlg1=         800
         NFxFlg=           0 DoJE=F BraDBF=F KetDBF=F FulRan=T
         wScrn=  0.000000 ICntrl=    100147 IOpCl=  0 I1Cent=           0 NGrid=           0
         NMat0=    1 NMatS0=      1 NMatT0=    0 NMatD0=    1 NMtDS0=    0 NMtDT0=    0
 Symmetry not used in FoFCou.
 Leave Link  703 at Sat Jan 24 09:54:21 2026, MaxMem=  4294967296 cpu:             528.2 elap:              33.2
 (Enter /root/g16/l716.exe)
 Dipole        =-2.47822284D+00-4.26018790D-01 1.55279440D+00
 Polarizability= 0.00000000D+00 0.00000000D+00 0.00000000D+00
                 0.00000000D+00 0.00000000D+00 0.00000000D+00
 ***** Axes restored to original set *****
 -------------------------------------------------------------------
 Center     Atomic                   Forces (Hartrees/Bohr)
 Number     Number              X              Y              Z
 -------------------------------------------------------------------
      1        8           0.005070473   -0.000988944    0.005482330
      2        6           0.002003839   -0.000385086   -0.007192168
      3        6           0.004388909    0.002997276    0.002810413
      4        6          -0.000619085    0.008023369   -0.009143830
      5        6          -0.001259709   -0.004751441   -0.000966359
      6        6           0.003825372   -0.001136553    0.007262248
      7        6          -0.000672537    0.004560010   -0.000082638
      8        6          -0.005251877   -0.004354949   -0.006029764
      9        8           0.001682909   -0.003840193    0.008813520
     10        6           0.003417848   -0.002743843    0.003862030
     11        6           0.002492757    0.004573811   -0.000894167
     12        6           0.001876529   -0.006258453    0.003175773
     13        8           0.002016861    0.001430375   -0.002780198
     14        6          -0.001148944    0.001919404   -0.001572245
     15        1          -0.001922387    0.004875315    0.007986531
     16        1          -0.001129862    0.003645333    0.005338947
     17        1           0.000077174    0.005841807   -0.004178289
     18        1          -0.000909934   -0.000360068   -0.007005666
     19        1          -0.005805490    0.002248346   -0.001665656
     20        1          -0.004168583   -0.005122122   -0.002094684
     21        1          -0.001646935   -0.000524121    0.004901593
     22        1          -0.003619119   -0.002730410   -0.004281813
     23        1          -0.000597215   -0.003315031    0.003910310
     24        1           0.001797745   -0.004543279   -0.003913135
     25        1           0.004925020   -0.000411946    0.000651760
     26        1          -0.004823756    0.001351392   -0.002394844
 -------------------------------------------------------------------
 Cartesian Forces:  Max     0.009143830 RMS     0.003986132
 FormGI is forming the generalized inverse of G from B-inverse, IUseBI=4.
 Leave Link  716 at Sat Jan 24 09:54:21 2026, MaxMem=  4294967296 cpu:               0.3 elap:               0.0
 (Enter /root/g16/l103.exe)

 GradGradGradGradGradGradGradGradGradGradGradGradGradGradGradGradGradGrad
 Berny optimization.
 Red2BG is reusing G-inverse.
 Internal  Forces:  Max     0.012587726 RMS     0.003091823
 Search for a local minimum.
 Step number   1 out of a maximum of  156
 All quantities printed in internal units (Hartrees-Bohrs-Radians)
[...]
 .00083707,0.00035326,-0.00007435,0.00013021,-0.00001368,0.00008435,-0.
 00025895,-0.00005744,0.00001366,0.00000464,0.00001053,0.00000882,-0.00
 014103,0.00005700,-0.00014751,0.00020922,0.00014638,0.00040284,-0.0004
 1307,-0.00029095,-0.00006821,-0.00011060,0.00004161,0.00092657,0.00033
 802,-0.00025872,0.00067207,0.00018325,0.00038299,-0.00132060,0.0005832
 9,0.00064212,0.27650485,-0.00049779,0.00014095,-0.00006522,0.00069864,
 -0.00024939,-0.00058393,-0.00109594,0.00131596,0.00001364,-0.00262217,
 -0.00346233,-0.00113050,-0.02149906,0.00887036,0.00330039,0.10810923,-
 0.09947097,-0.01543432,0.02443628,-0.01420302,-0.00336617,-0.00476543,
 -0.00181248,0.00221063,0.00257865,-0.00148670,0.00174333,0.00022166,0.
 00039257,-0.00002150,-0.00005294,0.00006392,-0.00010572,-0.00003259,-0
 .00010161,-0.00002215,0.00020153,0.00028600,0.00015235,-0.00006273,-0.
 00057848,-0.00040659,-0.00005606,-0.00012453,0.00006065,0.00053818,0.0
 0086653,0.00010857,0.00067017,0.00087595,0.00028700,0.00595661,-0.0034
 0889,-0.00092569,-0.11248649,0.11015087,-0.00016329,0.00003790,0.00002
 885,0.00031209,-0.00000618,-0.00026942,-0.00030787,0.00047588,0.000044
 42,-0.00102779,-0.00197136,-0.00002040,-0.00952839,0.00282783,0.000194
 58,0.03284744,-0.01639393,-0.04938243,-0.01775741,0.01117033,0.0009580
 6,0.00251965,0.00232497,-0.00096514,-0.00157771,0.00078476,-0.00110907
 ,-0.00032246,-0.00005792,-0.00022079,-0.00008199,-0.00008910,0.0001530
 3,0.00003289,0.00010204,-0.00013538,0.00031847,-0.00018200,0.00049280,
 -0.00003820,0.00039582,-0.00068712,-0.00003122,-0.00005453,0.00005019,
 -0.00005302,0.00061947,0.00051086,0.00051257,0.00000723,0.00003471,0.0
 2679111,-0.01343654,-0.00348863,-0.03222711,0.01463416,0.05213766,-0.0
 0007600,0.00003180,-0.00004619,0.00014764,-0.00007238,0.00002200,0.000
 02705,0.00003398,0.00007331,0.00019148,0.00018337,0.00005248,0.0008469
 4,0.00030367,0.00005408,0.00098070,0.00104888,0.00118222,-0.16202192,-
 0.11560182,-0.06910714,-0.02089107,-0.01861057,-0.01328025,0.00101710,
 0.00323929,0.00185051,0.00110564,0.00256122,0.00135796,-0.00008960,0.0
 0045160,0.00014533,0.00012097,0.00005850,-0.00001315,0.00008541,0.0000
 5265,0.00000801,0.00048864,-0.00009550,-0.00059251,-0.00000736,-0.0000
 0413,-0.00000884,-0.00009187,-0.00010086,-0.00006507,0.00003832,-0.000
 05630,-0.00017862,0.00027468,-0.00009781,0.00001570,0.00038591,-0.0001
 0117,0.00030375,0.17143342,-0.00017899,0.00006805,-0.00008028,0.000254
 09,-0.00018978,-0.00004858,-0.00037622,0.00032153,-0.00013018,0.001317
 90,-0.00036239,0.00012620,0.00105236,-0.00339314,0.00421492,-0.0186156
 4,-0.01728316,-0.00984761,-0.10723892,-0.14668487,-0.06424444,0.009143
 52,0.01146429,0.00767573,0.00020853,-0.00290084,0.00022555,-0.00109575
 ,-0.00139382,-0.00153288,-0.00000239,-0.00015864,0.00009181,-0.0000401
 3,-0.00007628,0.00001653,-0.00010557,0.00010255,0.00005741,-0.00013905
 ,-0.00010944,0.00017924,0.00000483,-0.00001073,0.00000734,0.00016262,0
 .00023133,-0.00004006,-0.00129736,-0.00100734,-0.00015286,-0.00006480,
 0.00144169,-0.00000783,0.00029519,0.00057397,-0.00060697,0.12020889,0.
 16345822,0.00005586,-0.00001742,0.00002998,-0.00006854,0.00005284,0.00
 001217,0.00009314,-0.00013166,0.00008965,-0.00063517,0.00008031,-0.000
 27666,-0.00019913,0.00293425,-0.00141637,0.01382239,0.01363029,0.00552
 067,-0.06743287,-0.06717381,-0.07898096,-0.00037495,0.00032004,-0.0022
 9965,-0.00070482,0.00171586,0.00101598,-0.00052466,-0.00050947,-0.0008
 9438,-0.00004261,-0.00009588,0.00005155,-0.00003634,0.00005734,-0.0000
 1870,0.00003301,-0.00005056,-0.00002009,0.00003071,0.00007261,0.000231
 33,0.00000627,0.00001589,-0.00000049,0.00007427,0.00024478,0.00008038,
 0.00049093,0.00069199,0.00013403,0.00057039,-0.00029627,0.00114164,-0.
 00014798,-0.00062933,0.00037943,0.07412844,0.06647383,0.08504748,-0.00
 002044,-0.00004163,-0.00009622,-0.00003272,0.00012789,0.00018554,0.000
 05742,-0.00002879,-0.00010265,-0.00003173,0.00020434,0.00013755,-0.000
 05026,0.00031383,0.00034711,-0.00052574,0.00031648,-0.00174840,-0.0630
 9717,0.01499057,0.07034940,-0.01460810,0.00942293,0.03034233,0.0030841
 1,-0.00394594,-0.00050057,-0.00403718,0.00210629,-0.00273653,-0.000425
 33,-0.00004030,0.00110936,-0.00012494,0.00019475,-0.00004727,-0.000120
 43,-0.00018373,0.00002995,0.00033449,0.00031421,-0.00027922,-0.0000023
 6,-0.00000701,-0.00002926,0.00000836,-0.00009905,0.00005497,0.00002439
 ,-0.00002548,-0.00014708,0.00094875,0.00071430,-0.00044623,0.00049445,
 -0.00019761,-0.00055687,0.00675403,-0.00407176,-0.01955870,0.07130734,
 -0.00000525,0.00002633,0.00004708,0.00003660,-0.00010646,-0.00012577,-
 0.00012493,0.00005501,0.00003061,0.00006374,-0.00002535,-0.00009826,0.
 00038875,0.00147480,0.00023353,-0.00714613,0.00549891,0.02720408,0.015
 91934,-0.05751737,-0.04838472,0.00232126,-0.00303626,-0.01559239,-0.00
 005363,0.00000559,0.00139722,0.00197007,-0.00045819,0.00143975,0.00018
 816,0.00034005,-0.00047353,0.00013610,-0.00009674,0.00002925,0.0000627
 2,0.00015161,-0.00009481,0.00012455,-0.00025978,0.00022752,-0.00000278
 ,0.00000910,0.00000694,-0.00007465,-0.00018244,-0.00042202,0.00023702,
 0.00000278,-0.00023950,-0.00036333,-0.00437045,0.00328338,-0.00008865,
 0.00125834,-0.00050457,0.00640331,-0.00420727,-0.01734013,-0.01994069,
 0.06127236,0.00009825,-0.00001446,0.00007700,-0.00011993,0.00004318,-0
 .00003867,0.00010496,-0.00013305,0.00006145,-0.00012503,0.00008702,-0.
 00015371,-0.00018504,-0.00058087,0.00070688,0.00275740,-0.00248150,-0.
 01479031,0.07321254,-0.05042930,-0.28402762,-0.00099569,0.00173953,-0.
 00037201,-0.00199054,0.00100421,0.00193280,-0.00007271,0.00012143,0.00
 057711,-0.00024091,0.00002035,-0.00012177,-0.00005039,0.00002976,-0.00
 004564,0.00023119,0.00002183,0.00004685,-0.00020753,-0.00009877,-0.000
 01124,0.00000981,0.00001333,0.00000913,0.00042792,0.00038458,0.0001246
 6,-0.00006072,0.00009494,0.00014718,0.00021894,0.00313647,-0.00047932,
 -0.00019352,-0.00001491,0.00076497,0.00352479,-0.00212471,-0.00971190,
 -0.07619164,0.04921918,0.30506416,-0.00010172,-0.00025653,-0.00048955,
 -0.00034061,0.00100873,0.00092020,0.00048601,0.00007106,-0.00001167,0.
 00033812,-0.00032191,0.00034806,0.00001173,-0.00023149,-0.00016696,0.0
 0022390,-0.00004741,0.00013267,-0.00202355,-0.00211840,-0.00192605,0.0
 1181796,0.01233577,0.01280329,-0.00229454,-0.00299831,0.00152954,-0.08
 696300,-0.05812295,-0.07332302,-0.01185881,-0.01260350,-0.01706053,-0.
 00294883,0.00147675,-0.00213698,0.00061810,0.00009229,0.00079570,-0.00
 119049,-0.00172158,-0.00480932,-0.00001564,-0.00011257,0.00002164,0.00
 005451,-0.00003770,-0.00001249,0.00003399,0.00000025,0.00000282,-0.000
 04684,0.00004216,-0.00006923,-0.00000113,0.00000505,-0.00000681,-0.000
 68999,0.00060506,0.00035154,0.00046367,-0.00023682,-0.00015303,0.09552
 331,-0.00090374,0.00038721,-0.00035115,0.00156275,-0.00138621,-0.00004
 377,-0.00101227,0.00003283,-0.00025287,-0.00158277,-0.00303256,0.00311
 997,-0.00021307,0.00015759,-0.00039510,-0.00009065,-0.00016473,-0.0001
 7735,-0.00005298,0.00005459,-0.00019849,0.00071176,0.00095505,-0.00008
 125,-0.00066525,-0.00142288,0.00030593,-0.06279934,-0.12068334,-0.1103
 5421,0.00822984,0.00755947,0.00957594,0.00090260,-0.00163025,0.0013431
 8,-0.00019907,0.00153326,0.00010104,-0.00939525,-0.02074402,-0.0186454
 1,0.00015999,0.00042942,-0.00036614,0.00016133,0.00000462,-0.00004830,
 -0.00001371,0.00003484,0.00004216,0.00008650,-0.00008623,0.00018522,0.
 00003157,0.00009813,0.00009698,0.00010564,0.00012022,-0.00003312,0.000
 01819,0.00004310,0.00000379,0.06385527,0.13515734,0.00021966,-0.000124
 02,0.00011209,-0.00012566,0.00054877,-0.00008832,0.00054484,-0.0001740
 8,0.00064817,0.00049151,0.00120279,-0.00094401,-0.00002406,-0.00007931
 ,0.00015280,-0.00017729,0.00003587,-0.00004163,0.00122158,0.00159271,0
 .00112561,-0.01144164,-0.01381641,-0.01986958,0.00376968,0.00248433,-0
 .00050473,-0.08137944,-0.11510154,-0.18609962,-0.00186657,-0.00323983,
 -0.00284050,0.00021122,0.00110918,-0.00021368,-0.00057555,-0.00066712,
 -0.00017137,0.00514741,0.01086732,0.00937804,-0.00004438,-0.00017454,0
 .00014168,-0.00004882,-0.00000959,0.00002056,0.00004876,-0.00003011,-0
 .00002112,0.00008560,-0.00015310,-0.00003400,-0.00001200,-0.00001307,-
 0.00003903,0.00064740,-0.00023223,-0.00007387,-0.00010080,0.00030937,0
 .00006933,0.08308689,0.11550340,0.19739282,-0.00021089,0.00051806,-0.0
 0017021,0.00143846,-0.00023240,0.00035772,-0.00034951,0.00007518,0.000
 10588,0.00022081,-0.00001884,-0.00025338,0.00005567,-0.00000959,-0.000
 00826,0.00023665,0.00003418,-0.00020518,0.00053104,-0.00043388,0.00029
 024,-0.00046747,0.00175718,-0.00260964,-0.00028858,-0.00103862,0.00212
 472,0.00064392,0.00914712,-0.02486617,-0.04348640,-0.00065616,-0.00148
 804,0.00165374,-0.00230791,0.01684826,-0.00063272,-0.00454196,0.001797
 87,-0.00408917,0.00088648,-0.00097303,-0.00001228,-0.00009147,0.000093
 73,-0.00000749,0.00000035,0.00001290,-0.00003398,-0.00002840,-0.000000
 68,0.00002085,-0.00001394,0.00007079,-0.00000569,-0.00011936,0.0000960
 4,0.00010355,-0.00005904,0.00005315,-0.00001441,-0.00003016,0.00000716
 ,-0.00224517,0.00104905,-0.00046572,0.04713264,-0.00023517,0.00048337,
 -0.00065124,0.00086887,-0.00041884,0.00167421,-0.00055740,-0.00008866,
 -0.00021243,0.00020524,0.00033092,0.00061127,-0.00004859,0.00001909,-0
 .00014200,-0.00004894,0.00001668,0.00005748,0.00003563,0.00024800,0.00
 018660,0.00032136,-0.00011502,0.00247505,-0.00178752,-0.00020980,-0.00
 100209,0.00066047,-0.00311626,0.00625351,0.00001443,-0.07646209,0.0811
 9916,0.00382416,-0.00446111,0.01867915,0.00050296,-0.00656238,0.003940
 56,-0.00150930,-0.00137935,0.00146243,-0.00002778,0.00000669,0.0000036
 8,0.00002628,-0.00002156,-0.00000799,-0.00003913,0.00001963,-0.0000049
 1,-0.00002458,0.00000599,-0.00002995,-0.00001017,0.00002540,-0.0000353
 0,0.00002963,-0.00000977,-0.00000310,-0.00005049,0.00003589,-0.0000224
 6,0.00004828,-0.00025817,0.00019244,-0.00121159,0.08302040,0.00044155,
 -0.00022514,0.00048123,-0.00063038,-0.00038457,-0.00040752,0.00009078,
 -0.00013251,0.00015458,-0.00006637,-0.00004024,-0.00012909,0.00000855,
 -0.00004024,0.00000888,-0.00015785,-0.00001826,0.00009998,-0.00005606,
 0.00019614,0.00000956,0.00161586,0.00134516,-0.00278719,0.00408419,-0.
 00205805,-0.00043940,-0.00361546,0.00165429,-0.00320183,-0.00346900,0.
 08605726,-0.29628065,0.00022656,0.00005683,0.00142125,-0.00015384,-0.0
 0082911,0.00136816,0.00026818,-0.00062670,-0.00051004,0.00000055,0.000
 03402,-0.00000755,-0.00000403,0.00000549,0.00000308,0.00001629,0.00000
 365,-0.00000599,0.00002620,-0.00001900,0.00000326,0.00000487,0.0000652
 5,-0.00002694,-0.00001234,-0.00000121,-0.00003333,-0.00003782,0.000011
 42,0.00005542,-0.00049049,0.00061205,-0.00026704,0.00219406,-0.0927019
 5,0.31509398,-0.00031212,0.00005522,-0.00149412,-0.00197047,-0.0017093
 9,0.00409570,0.00113631,-0.00014776,-0.00045767,-0.00031838,-0.0006745
 5,-0.00095245,0.00002758,-0.00024153,0.00016485,0.00003321,-0.00024511
 ,0.00005480,-0.00063399,-0.00035998,0.00094399,-0.00276196,0.00283320,
 -0.00263605,0.00022466,-0.00012044,0.00033718,-0.01087966,0.02026970,0
 .01599225,-0.06359378,0.06005727,0.05059126,0.00198898,-0.02081799,-0.
 01501913,0.00139710,0.00169253,0.00040456,-0.00271282,0.00015513,0.000
 25549,0.00023846,-0.00005131,-0.00009535,-0.00001372,0.00001238,0.0000
 2019,0.00010495,-0.00002403,0.00000173,0.00004548,0.00001449,-0.000003
 01,0.00000684,0.00007695,-0.00000109,-0.00013239,0.00004245,0.00000685
 ,-0.00034027,0.00011772,0.00004240,0.00117750,-0.00035374,0.00071925,-
 0.00002825,-0.00040465,-0.00038843,0.07621467,-0.00043725,-0.00006082,
 -0.00188889,-0.00255732,-0.00079479,0.00459490,0.00060635,0.00031621,-
 0.00041507,-0.00023501,0.00029979,0.00015593,0.00000437,-0.00015571,0.
 00022563,-0.00004436,0.00002635,-0.00005630,0.00002252,0.00007324,-0.0
 0028214,0.00000853,-0.00062564,0.00155627,-0.00049124,0.00005104,-0.00
 048761,0.00176437,-0.00417197,-0.00428022,0.06075163,-0.19313864,-0.12
 446198,0.00382396,-0.02150188,-0.01672589,0.00019735,0.00241876,0.0009
 1429,0.00089566,-0.00064597,-0.00002653,0.00013122,-0.00005527,-0.0000
 7699,0.00001104,0.00000931,-0.00001266,0.00009107,-0.00000943,-0.00002
 194,-0.00001831,0.00000061,0.00000243,0.00002123,0.00000513,-0.0000078
 7,0.00000468,0.00001401,0.00000551,0.00008090,-0.00002554,-0.00000537,
 -0.00053124,0.00099528,0.00036075,-0.00333276,0.00963243,0.00651020,-0
 .06107728,0.20599138,0.00032831,-0.00035960,0.00034825,-0.00044165,0.0
 0125622,-0.00016498,0.00012192,-0.00041399,0.00027818,-0.00015829,-0.0
 0018920,-0.00054397,-0.00001040,0.00001161,-0.00000840,0.00006486,-0.0
 0007885,0.00000528,-0.00026359,-0.00023505,0.00014336,-0.00094582,0.00
 142828,-0.00151433,0.00153582,-0.00032473,0.00072781,-0.00520014,0.008
 43055,0.00558435,0.05100183,-0.12724998,-0.15383502,-0.00157038,0.0053
 8525,0.00268257,0.00107657,-0.00075931,0.00082359,-0.00111755,0.000700
 70,-0.00010013,0.00003354,0.00003133,-0.00003653,0.00000210,-0.0000095
 1,-0.00000110,-0.00000089,-0.00001282,0.00001450,0.00000031,0.00000436
 ,0.00000181,0.00001072,-0.00001561,0.00001711,-0.00004622,0.00000298,0
 .00000637,-0.00004627,-0.00000758,0.00002827,-0.00011131,0.00043601,0.
 00116525,0.00749754,-0.02207014,-0.01461059,-0.05153300,0.13404386,0.1
 5851406,0.00181551,-0.00064876,0.00055033,-0.00081654,-0.00054200,-0.0
 0185345,0.00046888,-0.00027734,-0.00006197,-0.00007816,-0.00019345,-0.
 00018938,-0.00006138,-0.00007313,0.00017434,-0.00003224,0.00002367,0.0
 0000761,-0.00002740,0.00005562,0.00013184,0.00013608,-0.00007859,-0.00
 066696,-0.00018768,-0.00004494,0.00036711,-0.00078364,-0.00105650,0.00
 044268,-0.01018864,0.00314792,0.00331419,-0.29216623,0.06388215,0.0627
 6622,-0.01196761,0.00354455,-0.00234042,0.00164652,0.00110698,-0.00177
 708,0.00003782,-0.00003337,0.00006984,-0.00006274,0.00003625,0.0000383
 2,0.00001567,-0.00000308,-0.00000697,0.00003048,-0.00000395,0.00003233
 ,-0.00002902,0.00001319,0.00000206,-0.00000476,-0.00000490,-0.00000495
 ,-0.00004535,0.00003382,0.00001243,-0.00033911,0.00005413,-0.00007075,
 -0.00060273,-0.00055129,0.00001754,0.00095679,0.00036965,-0.00028104,0
 .31281511,-0.00185103,0.00114218,0.00304775,0.02086376,-0.00578806,-0.
 00744927,-0.00086152,-0.00183351,-0.00260652,-0.00022840,0.00043909,-0
 .00020695,0.00001675,0.00008068,-0.00002127,0.00003601,-0.00010598,0.0
 0006999,-0.00009063,0.00005016,0.00035684,-0.00027972,0.00023017,-0.00
 078239,-0.00016928,-0.00003493,0.00015720,-0.00292174,-0.00303440,0.00
 110149,-0.02342538,0.00694584,0.00410708,0.06052962,-0.06058094,-0.016
 06352,0.01747682,-0.00467346,-0.00009582,-0.00110989,-0.00183176,0.002
 68041,0.00048497,-0.00077098,0.00014955,0.00000189,-0.00002176,-0.0000
 1715,0.00002316,-0.00000262,0.00002016,0.00001016,-0.00000367,-0.00004
 768,0.00002371,0.00003048,-0.00003003,0.00001278,0.00000668,-0.0000149
 9,-0.00010095,0.00007540,-0.00000156,-0.00066745,0.00022106,-0.0001747
 3,-0.00004195,-0.00034232,0.00029007,0.00052260,0.00156113,-0.00007172
 ,-0.06895397,0.06809935,-0.00177736,0.00143615,0.00254442,0.02465579,-
 0.00653774,-0.00402624,-0.00088933,-0.00284851,-0.00306269,-0.00096260
 ,0.00003479,-0.00063070,0.00008951,0.00013014,0.00029031,-0.00004290,-
 0.00003362,-0.00008631,0.00002225,0.00002770,-0.00006512,-0.00001728,-
 0.00026528,0.00000453,-0.00000099,0.00005977,0.00007754,-0.00029437,0.
 00157472,-0.00012607,0.00437430,-0.00299626,0.00084784,0.07192296,-0.0
 1783670,-0.06700668,-0.03301443,0.00877562,0.00444549,-0.00169573,0.00
 305510,-0.00438677,0.00079113,-0.00088453,0.00023686,-0.00008580,0.000
 05720,0.00001556,0.00005620,-0.00003530,-0.00001394,0.00003620,0.00001
 919,0.00008021,0.00001605,0.00002780,0.00005792,0.00000071,0.00000279,
 0.00000417,0.00001677,-0.00001778,0.00000700,0.00029657,-0.00004221,0.
 00001297,-0.00030679,0.00005559,0.00005137,-0.00096619,0.00025961,0.00
 050638,-0.06085984,0.01588926,0.06984119,0.00000769,-0.00059750,-0.000
 59277,-0.00069001,0.00130362,0.00085520,0.00098472,0.00109015,0.000900
 83,0.00388928,-0.00267246,0.00143464,-0.00022875,-0.00030949,0.0004878
 7,-0.00160654,0.00045882,0.00139534,-0.00000324,-0.00012968,-0.0000741
 2,0.00004362,-0.00042906,0.00025542,-0.00004782,0.00013258,0.00013768,
 0.00608315,-0.00283303,0.00616348,-0.00073814,-0.00138293,0.00098322,-
 0.00485849,-0.00226441,0.00292562,-0.02842995,0.01245210,-0.02584877,-
 0.11357720,0.03185756,-0.11160346,0.00039032,0.00021896,-0.00001673,-0
 .00001588,-0.00014206,-0.00012288,0.00009285,0.00000093,-0.00002184,-0
 .00192800,0.00040945,0.00110490,0.00008383,0.00008321,-0.00005484,0.00
 000351,-0.00000494,0.00001377,-0.00000057,0.00006386,-0.00006111,0.000
 31064,0.00035321,0.00013886,0.00043744,-0.00003072,0.00008688,0.000145
 30,-0.00005976,0.00005302,-0.00052962,0.00069968,-0.00136483,0.1401818
 9,-0.00026048,0.00018651,0.00020137,0.00103839,-0.00010027,-0.00022921
 ,0.00149695,-0.00263602,-0.00209906,-0.01186074,0.00558400,-0.02093061
 ,-0.00047381,0.00082207,0.00046879,0.00068533,0.00008271,0.00006888,-0
 .00018018,0.00001675,0.00027086,0.00122517,-0.00183864,-0.00060442,-0.
 00054026,0.00011102,0.00135441,0.01149568,-0.00563202,0.01968685,-0.00
 009595,-0.00240170,0.00182062,0.00031007,-0.00046982,0.00065262,0.0012
 8874,0.00032272,0.00082856,0.03348565,-0.06123864,0.05203438,-0.001192
 74,-0.00070599,-0.00020496,-0.00023637,-0.00004554,0.00020249,0.000027
 58,-0.00029258,0.00014735,0.00036964,0.00040887,-0.00032979,0.00000294
 ,-0.00005615,-0.00010111,0.00001064,-0.00001504,0.00000020,-0.00007123
 ,0.00003657,-0.00001265,0.00046719,0.00162436,-0.00021724,0.00070041,-
 0.00039914,0.00023514,0.00037813,-0.00020901,0.00006695,0.00019734,0.0
 0014219,0.00009251,-0.03826809,0.06670281,-0.00066579,0.00034148,-0.00
 028003,0.00179447,-0.00055144,0.00021635,0.00152850,-0.00229267,-0.002
 11747,-0.01140874,0.00491681,-0.01742002,-0.00093685,-0.00002936,0.000
 31472,-0.00066587,0.00009552,-0.00047329,0.00005386,0.00018398,-0.0000
 4934,-0.00083585,0.00076486,0.00044387,0.00033966,-0.00018490,-0.00033
 452,-0.00333436,0.00072288,-0.00396201,0.00071209,0.00033219,-0.000193
 51,0.00270383,-0.00052920,0.00054312,0.00696191,-0.00297450,0.01287271
 ,-0.11944216,0.05381046,-0.24490999,-0.00112041,-0.00064606,-0.0000995
 2,-0.00001678,0.00001611,0.00016815,0.00039695,-0.00033575,-0.00007640
 ,0.00079579,0.00020431,0.00090337,-0.00009855,0.00013093,0.00051977,-0
 .00001637,-0.00002446,-0.00001841,0.00005254,-0.00013827,0.00007998,0.
 00047852,-0.00033631,0.00098917,-0.00020297,0.00009244,-0.00004358,-0.
 00008399,0.00012011,-0.00003210,0.00018598,-0.00028621,0.00038076,0.12
 282462,-0.05340295,0.25257821\\-0.00000068,0.00000321,0.00000008,-0.00
 000045,0.00000222,0.00000046,-0.00000164,0.00000141,-0.00000075,-0.000
 00011,0.00000015,0.00000021,-0.00000157,-0.00000032,-0.00000147,-0.000
 00109,-0.00000151,-0.00000051,0.00000015,-0.00000252,0.00000038,-0.000
 00032,-0.00000188,0.00000012,0.00000086,0.00000043,-0.00000019,0.00000
 247,0.00000109,0.00000189,0.00000130,0.00000020,0.00000037,0.00000062,
 0.00000201,0.00000053,-0.00000022,0.00000098,0.00000010,-0.00000055,-0
 .00000005,-0.00000029,-0.00000168,0.00000132,-0.00000085,-0.00000191,-
 0.00000090,-0.00000127,-0.00000201,-0.00000148,-0.00000087,-0.00000005
 ,-0.00000219,-0.00000023,-0.00000073,-0.00000276,-0.00000079,0.0000013
 4,-0.00000204,0.00000016,0.00000008,-0.00000122,-0.00000060,0.00000175
 ,-0.00000068,0.00000081,0.00000176,0.00000160,0.00000066,0.00000214,0.
 00000138,0.00000130,0.00000042,0.00000242,0.00000071,0.00000013,-0.000
 00087,0.00000004\\\@


 I do not feel obliged to believe that the same God who
 has endowed us with sense, reason, and intellect has
 intended us to forgo their use.
                   --Galileo Galilei
 Job cpu time:       0 days  0 hours 27 minutes  2.3 seconds.
 Elapsed time:       0 days  0 hours  1 minutes 42.5 seconds.
 File lengths (MBytes):  RWF=    260 Int=      0 D2E=      0 Chk=     19 Scr=      1
 Normal termination of Gaussian 16 at Sat Jan 24 09:57:23 2026.
