 Entering Gaussian System, Link 0=g16
 Initial command:
 /root/g16/l1.exe "/root/g16/scratch/gau_root_552062/Gau-552069.inp" -scrdir="/root/g16/scratch/gau_root_552062/"
 Entering Link 1 = /root/g16/l1.exe PID=    552071.
  
 Copyright (c) 1988,1990,1992,1993,1995,1998,2003,2009,2016,
            Gaussian, Inc.  All Rights Reserved.
  
 This is part of the Gaussian(R) 16 program.  It is based on
 the Gaussian(R) 09 system (copyright 2009, Gaussian, Inc.),
 the Gaussian(R) 03 system (copyright 2003, Gaussian, Inc.),
 the Gaussian(R) 98 system (copyright 1998, Gaussian, Inc.),
 the Gaussian(R) 94 system (copyright 1995, Gaussian, Inc.),
 the Gaussian 92(TM) system (copyright 1992, Gaussian, Inc.),
 the Gaussian 90(TM) system (copyright 1990, Gaussian, Inc.),
 the Gaussian 88(TM) system (copyright 1988, Gaussian, Inc.),
 the Gaussian 86(TM) system (copyright 1986, Carnegie Mellon
 University), and the Gaussian 82(TM) system (copyright 1983,
 Carnegie Mellon University). Gaussian is a federally registered
 trademark of Gaussian, Inc.
  
 This software contains proprietary and confidential information,
 including trade secrets, belonging to Gaussian, Inc.
  
 This software is provided under written license and may be
 used, copied, transmitted, or stored only in accord with that
 written license.
  
 The following legend is applicable only to US Government
 contracts under FAR:
  
                    RESTRICTED RIGHTS LEGEND
  
 Use, reproduction and disclosure by the US Government is
 subject to restrictions as set forth in subparagraphs (a)
 and (c) of the Commercial Computer Software - Restricted
 Rights clause in FAR 52.227-19.
  
 Gaussian, Inc.
 340 Quinnipiac St., Bldg. 40, Wallingford CT 06492
  
  
 ---------------------------------------------------------------
 Warning -- This program may not be used in any manner that
 competes with the business of Gaussian, Inc. or will provide
 assistance to any competitor of Gaussian, Inc.  The licensee
 of this program is prohibited from giving any competitor of
 Gaussian, Inc. access to this program.  By using this program,
 the user acknowledges that Gaussian, Inc. is engaged in the
 business of creating and licensing software in the field of
 computational chemistry and represents and warrants to the
 licensee that it is not a competitor of Gaussian, Inc. and that
 it will not use this program in any manner prohibited above.
 ---------------------------------------------------------------
  

 Cite this work as:
 Gaussian 16, Revision A.03,
 M. J. Frisch, G. W. Trucks, H. B. Schlegel, G. E. Scuseria, 
 M. A. Robb, J. R. Cheeseman, G. Scalmani, V. Barone, 
 G. A. Petersson, H. Nakatsuji, X. Li, M. Caricato, A. V. Marenich, 
 J. Bloino, B. G. Janesko, R. Gomperts, B. Mennucci, H. P. Hratchian, 
 J. V. Ortiz, A. F. Izmaylov, J. L. Sonnenberg, D. Williams-Young, 
 F. Ding, F. Lipparini, F. Egidi, J. Goings, B. Peng, A. Petrone, 
 T. Henderson, D. Ranasinghe, V. G. Zakrzewski, J. Gao, N. Rega, 
 G. Zheng, W. Liang, M. Hada, M. Ehara, K. Toyota, R. Fukuda, 
 J. Hasegawa, M. Ishida, T. Nakajima, Y. Honda, O. Kitao, H. Nakai, 
 T. Vreven, K. Throssell, J. A. Montgomery, Jr., J. E. Peralta, 
 F. Ogliaro, M. J. Bearpark, J. J. Heyd, E. N. Brothers, K. N. Kudin, 
 V. N. Staroverov, T. A. Keith, R. Kobayashi, J. Normand, 
 K. Raghavachari, A. P. Rendell, J. C. Burant, S. S. Iyengar, 
 J. Tomasi, M. Cossi, J. M. Millam, M. Klene, C. Adamo, R. Cammi, 
 J. W. Ochterski, R. L. Martin, K. Morokuma, O. Farkas, 
 J. B. Foresman, and D. J. Fox, Gaussian, Inc., Wallingford CT, 2016.
 
 ******************************************
 Gaussian 16:  ES64L-G16RevA.03 25-Dec-2016
                24-Jan-2026 
 ******************************************
 %chk=conf_000.chk
 %mem=32GB
 %nprocshared=16
 Will use up to   16 processors via shared memory.
 --------------------------------------------------------------------
 #p B3LYP/def2SVP em=GD3BJ SCRF=(PCM,Solvent=Acetone) Opt=CalcFC Freq
 --------------------------------------------------------------------
 1/10=4,18=20,19=15,26=3,38=1/1,3;
 2/9=110,12=2,17=6,18=5,40=1/2;
 3/5=43,7=101,11=2,25=1,30=1,70=2201,71=2,72=19,74=-5,124=41,140=1/1,2,3;
 4//1;
 5/5=2,38=5,53=19/2;
 8/6=4,10=90,11=11/1;
 11/6=1,8=1,9=11,15=111,16=1/1,2,10;
 10/6=1,13=1/2;
 6/7=2,8=2,9=2,10=2,28=1/1;
 7/10=1,18=20,25=1/1,2,3,16;
 1/10=4,18=20,19=15,26=3/3(2);
 2/9=110/2;
 99//99;
 2/9=110/2;
 3/5=43,7=101,11=2,25=1,30=1,70=2205,71=1,72=19,74=-5,124=41/1,2,3;
 4/5=5,16=3,69=1/1;
 5/5=2,38=5,53=19/2;
 7//1,2,3,16;
 1/18=20,19=15,26=3/3(-5);
 2/9=110/2;
 6/7=2,8=2,9=2,10=2,19=2,28=1/1;
 99/9=1/99;
 Leave Link    1 at Sat Jan 24 09:45:51 2026, MaxMem=  4294967296 cpu:               0.3 elap:               0.0
 (Enter /root/g16/l101.exe)
 ----------------
 product_conf_000
 ----------------
 Symbolic Z-matrix:
 Charge =  0 Multiplicity = 1
 O                     2.77234   0.54199   1.51435 
 C                     1.92403   0.51744   0.64352 
 C                     0.72958   1.35831   0.64165 
 C                    -0.21927   1.19107  -0.29101 
 C                    -1.53738   1.89018  -0.28312 
 C                    -2.5888    1.02894   0.43667 
 C                    -2.64056  -0.40538  -0.11132 
 C                    -1.39412  -1.14917   0.31684 
 O                    -1.27587  -1.61921   1.4222 
 C                    -0.29847  -1.24415  -0.73203 
 C                     1.06388  -1.67535  -0.17383 
 C                     1.97624  -0.47092  -0.51934 
 O                     1.39208   0.0911   -1.67635 
 C                     0.02308   0.15153  -1.3566 
 H                     0.638     2.08742   1.43356 
 H                    -1.4514    2.84568   0.23523 
 H                    -1.86343   2.07403  -1.30853 
 H                    -3.56715   1.49521   0.31669 
 H                    -2.35765   0.98675   1.50262 
 H                    -2.74244  -0.39348  -1.19564 
 H                    -3.50147  -0.91111   0.32968 
 H                    -0.64112  -1.92754  -1.51331 
 H                     1.01431  -1.85204   0.90063 
 H                     1.43159  -2.57415  -0.66432 
 H                     3.00637  -0.75165  -0.74139 
 H                    -0.52368   0.36366  -2.27583 
 
 ITRead=  0  0  0  0  0  0  0  0  0  0  0  0  0  0  0  0  0  0  0  0
 ITRead=  0  0  0  0  0  0
 MicOpt= -1 -1 -1 -1 -1 -1 -1 -1 -1 -1 -1 -1 -1 -1 -1 -1 -1 -1 -1 -1
 MicOpt= -1 -1 -1 -1 -1 -1
 NAtoms=     26 NQM=       26 NQMF=       0 NMMI=      0 NMMIF=      0
                NMic=       0 NMicF=      0.
                    Isotopes and Nuclear Properties:
 (Nuclear quadrupole moments (NQMom) in fm**2, nuclear magnetic moments (NMagM)
  in nuclear magnetons)

  Atom         1           2           3           4           5           6           7           8           9          10
 IAtWgt=          16          12          12          12          12          12          12          12          16          12
 AtmWgt=  15.9949146  12.0000000  12.0000000  12.0000000  12.0000000  12.0000000  12.0000000  12.0000000  15.9949146  12.0000000
 NucSpn=           0           0           0           0           0           0           0           0           0           0
 AtZEff=  -0.0000000  -0.0000000  -0.0000000  -0.0000000  -0.0000000  -0.0000000  -0.0000000  -0.0000000  -0.0000000  -0.0000000
 NQMom=    0.0000000   0.0000000   0.0000000   0.0000000   0.0000000   0.0000000   0.0000000   0.0000000   0.0000000   0.0000000
 NMagM=    0.0000000   0.0000000   0.0000000   0.0000000   0.0000000   0.0000000   0.0000000   0.0000000   0.0000000   0.0000000
 AtZNuc=   8.0000000   6.0000000   6.0000000   6.0000000   6.0000000   6.0000000   6.0000000   6.0000000   8.0000000   6.0000000

  Atom        11          12          13          14          15          16          17          18          19          20
 IAtWgt=          12          12          16          12           1           1           1           1           1           1
 AtmWgt=  12.0000000  12.0000000  15.9949146  12.0000000   1.0078250   1.0078250   1.0078250   1.0078250   1.0078250   1.0078250
 NucSpn=           0           0           0           0           1           1           1           1           1           1
 AtZEff=  -0.0000000  -0.0000000  -0.0000000  -0.0000000  -0.0000000  -0.0000000  -0.0000000  -0.0000000  -0.0000000  -0.0000000
 NQMom=    0.0000000   0.0000000   0.0000000   0.0000000   0.0000000   0.0000000   0.0000000   0.0000000   0.0000000   0.0000000
 NMagM=    0.0000000   0.0000000   0.0000000   0.0000000   2.7928460   2.7928460   2.7928460   2.7928460   2.7928460   2.7928460
 AtZNuc=   6.0000000   6.0000000   8.0000000   6.0000000   1.0000000   1.0000000   1.0000000   1.0000000   1.0000000   1.0000000

  Atom        21          22          23          24          25          26
 IAtWgt=           1           1           1           1           1           1
 AtmWgt=   1.0078250   1.0078250   1.0078250   1.0078250   1.0078250   1.0078250
 NucSpn=           1           1           1           1           1           1
 AtZEff=  -0.0000000  -0.0000000  -0.0000000  -0.0000000  -0.0000000  -0.0000000
 NQMom=    0.0000000   0.0000000   0.0000000   0.0000000   0.0000000   0.0000000
 NMagM=    2.7928460   2.7928460   2.7928460   2.7928460   2.7928460   2.7928460
 AtZNuc=   1.0000000   1.0000000   1.0000000   1.0000000   1.0000000   1.0000000
 Leave Link  101 at Sat Jan 24 09:45:51 2026, MaxMem=  4294967296 cpu:               6.1 elap:               0.4
 (Enter /root/g16/l103.exe)

 GradGradGradGradGradGradGradGradGradGradGradGradGradGradGradGradGradGrad
 Berny optimization.
 Initialization pass.
                           ----------------------------
                           !    Initial Parameters    !
                           ! (Angstroms and Degrees)  !
 --------------------------                            --------------------------
 ! Name  Definition              Value          Derivative Info.                !
 --------------------------------------------------------------------------------
 ! R1    R(1,2)                  1.216          calculate D2E/DX2 analytically  !
 ! R2    R(2,3)                  1.4607         calculate D2E/DX2 analytically  !
 ! R3    R(2,12)                 1.527          calculate D2E/DX2 analytically  !
 ! R4    R(3,4)                  1.341          calculate D2E/DX2 analytically  !
 ! R5    R(3,15)                 1.0803         calculate D2E/DX2 analytically  !
 ! R6    R(4,5)                  1.4921         calculate D2E/DX2 analytically  !
 ! R7    R(4,14)                 1.5083         calculate D2E/DX2 analytically  !
 ! R8    R(5,6)                  1.538          calculate D2E/DX2 analytically  !
 ! R9    R(5,16)                 1.0904         calculate D2E/DX2 analytically  !
 ! R10   R(5,17)                 1.0916         calculate D2E/DX2 analytically  !
 ! R11   R(6,7)                  1.5363         calculate D2E/DX2 analytically  !
 ! R12   R(6,18)                 1.0904         calculate D2E/DX2 analytically  !
 ! R13   R(6,19)                 1.0915         calculate D2E/DX2 analytically  !
 ! R14   R(7,8)                  1.5133         calculate D2E/DX2 analytically  !
 ! R15   R(7,20)                 1.0892         calculate D2E/DX2 analytically  !
 ! R16   R(7,21)                 1.0915         calculate D2E/DX2 analytically  !
 ! R17   R(8,9)                  1.207          calculate D2E/DX2 analytically  !
 ! R18   R(8,10)                 1.5197         calculate D2E/DX2 analytically  !
 ! R19   R(10,11)                1.5341         calculate D2E/DX2 analytically  !
 ! R20   R(10,14)                1.5625         calculate D2E/DX2 analytically  !
 ! R21   R(10,22)                1.0931         calculate D2E/DX2 analytically  !
 ! R22   R(11,12)                1.55           calculate D2E/DX2 analytically  !
 ! R23   R(11,23)                1.09           calculate D2E/DX2 analytically  !
 ! R24   R(11,24)                1.0879         calculate D2E/DX2 analytically  !
 ! R25   R(12,13)                1.4127         calculate D2E/DX2 analytically  !
 ! R26   R(12,25)                1.0905         calculate D2E/DX2 analytically  !
 ! R27   R(13,14)                1.4071         calculate D2E/DX2 analytically  !
 ! R28   R(14,26)                1.0904         calculate D2E/DX2 analytically  !
 ! A1    A(1,2,3)              124.0388         calculate D2E/DX2 analytically  !
 ! A2    A(1,2,12)             122.3157         calculate D2E/DX2 analytically  !
 ! A3    A(3,2,12)             113.5511         calculate D2E/DX2 analytically  !
 ! A4    A(2,3,4)              120.5104         calculate D2E/DX2 analytically  !
 ! A5    A(2,3,15)             117.1859         calculate D2E/DX2 analytically  !
 ! A6    A(4,3,15)             122.2781         calculate D2E/DX2 analytically  !
 ! A7    A(3,4,5)              124.2626         calculate D2E/DX2 analytically  !
 ! A8    A(3,4,14)             117.6227         calculate D2E/DX2 analytically  !
 ! A9    A(5,4,14)             117.9456         calculate D2E/DX2 analytically  !
 ! A10   A(4,5,6)              110.1225         calculate D2E/DX2 analytically  !
 ! A11   A(4,5,16)             110.0857         calculate D2E/DX2 analytically  !
 ! A12   A(4,5,17)             109.744          calculate D2E/DX2 analytically  !
 ! A13   A(6,5,16)             108.7915         calculate D2E/DX2 analytically  !
 ! A14   A(6,5,17)             109.254          calculate D2E/DX2 analytically  !
 ! A15   A(16,5,17)            108.815          calculate D2E/DX2 analytically  !
 ! A16   A(5,6,7)              112.2666         calculate D2E/DX2 analytically  !
 ! A17   A(5,6,18)             108.8103         calculate D2E/DX2 analytically  !
 ! A18   A(5,6,19)             109.5069         calculate D2E/DX2 analytically  !
 ! A19   A(7,6,18)             109.2535         calculate D2E/DX2 analytically  !
 ! A20   A(7,6,19)             108.6251         calculate D2E/DX2 analytically  !
 ! A21   A(18,6,19)            108.2993         calculate D2E/DX2 analytically  !
 ! A22   A(6,7,8)              109.2808         calculate D2E/DX2 analytically  !
 ! A23   A(6,7,20)             110.3686         calculate D2E/DX2 analytically  !
 ! A24   A(6,7,21)             108.3629         calculate D2E/DX2 analytically  !
 ! A25   A(8,7,20)             111.3505         calculate D2E/DX2 analytically  !
 ! A26   A(8,7,21)             107.9146         calculate D2E/DX2 analytically  !
 ! A27   A(20,7,21)            109.4824         calculate D2E/DX2 analytically  !
 ! A28   A(7,8,9)              122.0875         calculate D2E/DX2 analytically  !
 ! A29   A(7,8,10)             115.4207         calculate D2E/DX2 analytically  !
 ! A30   A(9,8,10)             122.4859         calculate D2E/DX2 analytically  !
 ! A31   A(8,10,11)            113.9963         calculate D2E/DX2 analytically  !
 ! A32   A(8,10,14)            111.6181         calculate D2E/DX2 analytically  !
 ! A33   A(8,10,22)            107.8407         calculate D2E/DX2 analytically  !
 ! A34   A(11,10,14)           102.3426         calculate D2E/DX2 analytically  !
 ! A35   A(11,10,22)           111.2669         calculate D2E/DX2 analytically  !
 ! A36   A(14,10,22)           109.7092         calculate D2E/DX2 analytically  !
 ! A37   A(10,11,12)           102.8972         calculate D2E/DX2 analytically  !
 ! A38   A(10,11,23)           111.3356         calculate D2E/DX2 analytically  !
 ! A39   A(10,11,24)           111.6113         calculate D2E/DX2 analytically  !
 ! A40   A(12,11,23)           111.8674         calculate D2E/DX2 analytically  !
 ! A41   A(12,11,24)           110.031          calculate D2E/DX2 analytically  !
 ! A42   A(23,11,24)           109.0176         calculate D2E/DX2 analytically  !
 ! A43   A(2,12,11)            108.2444         calculate D2E/DX2 analytically  !
 ! A44   A(2,12,13)            110.6127         calculate D2E/DX2 analytically  !
 ! A45   A(2,12,25)            110.7305         calculate D2E/DX2 analytically  !
 ! A46   A(11,12,13)           104.377          calculate D2E/DX2 analytically  !
 ! A47   A(11,12,25)           113.6643         calculate D2E/DX2 analytically  !
 ! A48   A(13,12,25)           109.0406         calculate D2E/DX2 analytically  !
 ! A49   A(12,13,14)           103.4899         calculate D2E/DX2 analytically  !
 ! A50   A(4,14,10)            107.4677         calculate D2E/DX2 analytically  !
 ! A51   A(4,14,13)            110.2716         calculate D2E/DX2 analytically  !
 ! A52   A(4,14,26)            112.3919         calculate D2E/DX2 analytically  !
 ! A53   A(10,14,13)           104.6365         calculate D2E/DX2 analytically  !
 ! A54   A(10,14,26)           114.0521         calculate D2E/DX2 analytically  !
 ! A55   A(13,14,26)           107.7365         calculate D2E/DX2 analytically  !
 ! D1    D(1,2,3,4)           -174.0628         calculate D2E/DX2 analytically  !
 ! D2    D(1,2,3,15)             4.1375         calculate D2E/DX2 analytically  !
 ! D3    D(12,2,3,4)             2.4692         calculate D2E/DX2 analytically  !
 ! D4    D(12,2,3,15)         -179.3305         calculate D2E/DX2 analytically  !
 ! D5    D(1,2,12,11)           97.11           calculate D2E/DX2 analytically  !
 ! D6    D(1,2,12,13)         -149.1045         calculate D2E/DX2 analytically  !
 ! D7    D(1,2,12,25)          -28.1046         calculate D2E/DX2 analytically  !
 ! D8    D(3,2,12,11)          -79.4896         calculate D2E/DX2 analytically  !
 ! D9    D(3,2,12,13)           34.2959         calculate D2E/DX2 analytically  !
 ! D10   D(3,2,12,25)          155.2958         calculate D2E/DX2 analytically  !
 ! D11   D(2,3,4,5)            172.6999         calculate D2E/DX2 analytically  !
 ! D12   D(2,3,4,14)            -2.4649         calculate D2E/DX2 analytically  !
 ! D13   D(15,3,4,5)            -5.4065         calculate D2E/DX2 analytically  !
 ! D14   D(15,3,4,14)          179.4287         calculate D2E/DX2 analytically  !
 ! D15   D(3,4,5,6)            -92.5397         calculate D2E/DX2 analytically  !
 ! D16   D(3,4,5,16)            27.4113         calculate D2E/DX2 analytically  !
 ! D17   D(3,4,5,17)           147.1531         calculate D2E/DX2 analytically  !
 ! D18   D(14,4,5,6)            82.6106         calculate D2E/DX2 analytically  !
 ! D19   D(14,4,5,16)         -157.4383         calculate D2E/DX2 analytically  !
 ! D20   D(14,4,5,17)          -37.6965         calculate D2E/DX2 analytically  !
 ! D21   D(3,4,14,10)           79.0757         calculate D2E/DX2 analytically  !
 ! D22   D(3,4,14,13)          -34.4161         calculate D2E/DX2 analytically  !
 ! D23   D(3,4,14,26)         -154.6421         calculate D2E/DX2 analytically  !
 ! D24   D(5,4,14,10)          -96.4013         calculate D2E/DX2 analytically  !
 ! D25   D(5,4,14,13)          150.1068         calculate D2E/DX2 analytically  !
 ! D26   D(5,4,14,26)           29.8808         calculate D2E/DX2 analytically  !
 ! D27   D(4,5,6,7)            -51.584          calculate D2E/DX2 analytically  !
 ! D28   D(4,5,6,18)          -172.6412         calculate D2E/DX2 analytically  !
 ! D29   D(4,5,6,19)            69.158          calculate D2E/DX2 analytically  !
 ! D30   D(16,5,6,7)          -172.3154         calculate D2E/DX2 analytically  !
 ! D31   D(16,5,6,18)           66.6274         calculate D2E/DX2 analytically  !
 ! D32   D(16,5,6,19)          -51.5734         calculate D2E/DX2 analytically  !
 ! D33   D(17,5,6,7)            69.0182         calculate D2E/DX2 analytically  !
 ! D34   D(17,5,6,18)          -52.039          calculate D2E/DX2 analytically  !
 ! D35   D(17,5,6,19)         -170.2398         calculate D2E/DX2 analytically  !
 ! D36   D(5,6,7,8)             71.2662         calculate D2E/DX2 analytically  !
 ! D37   D(5,6,7,20)           -51.5068         calculate D2E/DX2 analytically  !
 ! D38   D(5,6,7,21)          -171.3804         calculate D2E/DX2 analytically  !
 ! D39   D(18,6,7,8)          -167.9318         calculate D2E/DX2 analytically  !
 ! D40   D(18,6,7,20)           69.2953         calculate D2E/DX2 analytically  !
 ! D41   D(18,6,7,21)          -50.5783         calculate D2E/DX2 analytically  !
 ! D42   D(19,6,7,8)           -49.9831         calculate D2E/DX2 analytically  !
 ! D43   D(19,6,7,20)         -172.7561         calculate D2E/DX2 analytically  !
 ! D44   D(19,6,7,21)           67.3703         calculate D2E/DX2 analytically  !
 ! D45   D(6,7,8,9)             79.788          calculate D2E/DX2 analytically  !
 ! D46   D(6,7,8,10)           -99.3489         calculate D2E/DX2 analytically  !
 ! D47   D(20,7,8,9)          -158.0268         calculate D2E/DX2 analytically  !
 ! D48   D(20,7,8,10)           22.8362         calculate D2E/DX2 analytically  !
 ! D49   D(21,7,8,9)           -37.8476         calculate D2E/DX2 analytically  !
 ! D50   D(21,7,8,10)          143.0154         calculate D2E/DX2 analytically  !
 ! D51   D(7,8,10,11)          165.2539         calculate D2E/DX2 analytically  !
 ! D52   D(7,8,10,14)           49.9073         calculate D2E/DX2 analytically  !
 ! D53   D(7,8,10,22)          -70.6657         calculate D2E/DX2 analytically  !
 ! D54   D(9,8,10,11)          -13.8793         calculate D2E/DX2 analytically  !
 ! D55   D(9,8,10,14)         -129.2259         calculate D2E/DX2 analytically  !
 ! D56   D(9,8,10,22)          110.2011         calculate D2E/DX2 analytically  !
 ! D57   D(8,10,11,12)        -119.5269         calculate D2E/DX2 analytically  !
 ! D58   D(8,10,11,23)           0.4501         calculate D2E/DX2 analytically  !
 ! D59   D(8,10,11,24)         122.5249         calculate D2E/DX2 analytically  !
 ! D60   D(14,10,11,12)          1.1515         calculate D2E/DX2 analytically  !
 ! D61   D(14,10,11,23)        121.1286         calculate D2E/DX2 analytically  !
 ! D62   D(14,10,11,24)       -116.7967         calculate D2E/DX2 analytically  !
 ! D63   D(22,10,11,12)        118.2563         calculate D2E/DX2 analytically  !
 ! D64   D(22,10,11,23)       -121.7666         calculate D2E/DX2 analytically  !
 ! D65   D(22,10,11,24)          0.3081         calculate D2E/DX2 analytically  !
 ! D66   D(8,10,14,4)           31.3765         calculate D2E/DX2 analytically  !
 ! D67   D(8,10,14,13)         148.6078         calculate D2E/DX2 analytically  !
 ! D68   D(8,10,14,26)         -93.9176         calculate D2E/DX2 analytically  !
 ! D69   D(11,10,14,4)         -90.9344         calculate D2E/DX2 analytically  !
 ! D70   D(11,10,14,13)         26.297          calculate D2E/DX2 analytically  !
 ! D71   D(11,10,14,26)        143.7715         calculate D2E/DX2 analytically  !
 ! D72   D(22,10,14,4)         150.8503         calculate D2E/DX2 analytically  !
 ! D73   D(22,10,14,13)        -91.9184         calculate D2E/DX2 analytically  !
 ! D74   D(22,10,14,26)         25.5562         calculate D2E/DX2 analytically  !
 ! D75   D(10,11,12,2)          89.6853         calculate D2E/DX2 analytically  !
 ! D76   D(10,11,12,13)        -28.1651         calculate D2E/DX2 analytically  !
 ! D77   D(10,11,12,25)       -146.8528         calculate D2E/DX2 analytically  !
 ! D78   D(23,11,12,2)         -29.924          calculate D2E/DX2 analytically  !
 ! D79   D(23,11,12,13)       -147.7744         calculate D2E/DX2 analytically  !
 ! D80   D(23,11,12,25)         93.538          calculate D2E/DX2 analytically  !
 ! D81   D(24,11,12,2)        -151.2597         calculate D2E/DX2 analytically  !
 ! D82   D(24,11,12,13)         90.8899         calculate D2E/DX2 analytically  !
 ! D83   D(24,11,12,25)        -27.7977         calculate D2E/DX2 analytically  !
 ! D84   D(2,12,13,14)         -69.669          calculate D2E/DX2 analytically  !
 ! D85   D(11,12,13,14)         46.544          calculate D2E/DX2 analytically  !
 ! D86   D(25,12,13,14)        168.3335         calculate D2E/DX2 analytically  !
 ! D87   D(12,13,14,4)          69.5435         calculate D2E/DX2 analytically  !
 ! D88   D(12,13,14,10)        -45.7452         calculate D2E/DX2 analytically  !
 ! D89   D(12,13,14,26)       -167.4665         calculate D2E/DX2 analytically  !
 --------------------------------------------------------------------------------
 Trust Radius=3.00D-01 FncErr=1.00D-07 GrdErr=1.00D-06 EigMax=2.50D+02 EigMin=1.00D-04
 Number of steps in this run=    156 maximum allowed number of steps=    156.
 GradGradGradGradGradGradGradGradGradGradGradGradGradGradGradGradGradGrad

 Leave Link  103 at Sat Jan 24 09:45:51 2026, MaxMem=  4294967296 cpu:               0.3 elap:               0.0
 (Enter /root/g16/l202.exe)
                          Input orientation:                          
 ---------------------------------------------------------------------
 Center     Atomic      Atomic             Coordinates (Angstroms)
 Number     Number       Type             X           Y           Z
 ---------------------------------------------------------------------
      1          8           0        2.772345    0.541995    1.514347
      2          6           0        1.924030    0.517438    0.643521
      3          6           0        0.729578    1.358313    0.641651
      4          6           0       -0.219275    1.191068   -0.291013
      5          6           0       -1.537384    1.890184   -0.283125
      6          6           0       -2.588800    1.028939    0.436666
      7          6           0       -2.640564   -0.405378   -0.111315
      8          6           0       -1.394122   -1.149166    0.316839
      9          8           0       -1.275867   -1.619207    1.422203
     10          6           0       -0.298468   -1.244148   -0.732026
     11          6           0        1.063883   -1.675350   -0.173831
     12          6           0        1.976244   -0.470918   -0.519337
     13          8           0        1.392082    0.091101   -1.676349
     14          6           0        0.023084    0.151530   -1.356600
     15          1           0        0.638001    2.087421    1.433557
     16          1           0       -1.451397    2.845681    0.235226
     17          1           0       -1.863433    2.074031   -1.308534
     18          1           0       -3.567147    1.495206    0.316688
     19          1           0       -2.357654    0.986748    1.502618
     20          1           0       -2.742439   -0.393484   -1.195640
     21          1           0       -3.501468   -0.911106    0.329684
     22          1           0       -0.641119   -1.927538   -1.513314
     23          1           0        1.014305   -1.852037    0.900628
     24          1           0        1.431586   -2.574152   -0.664317
     25          1           0        3.006373   -0.751646   -0.741393
     26          1           0       -0.523681    0.363661   -2.275830
 ---------------------------------------------------------------------
                    Distance matrix (angstroms):
                    1          2          3          4          5
     1  O    0.000000
     2  C    1.215968   0.000000
     3  C    2.366615   1.460750   0.000000
     4  C    3.553928   2.433287   1.340953   0.000000
     5  C    4.860275   3.837250   2.505437   1.492058   0.000000
     6  C    5.490026   4.546433   3.340979   2.484039   1.537959
     7  C    5.730608   4.717720   3.877554   2.905783   2.552671
     8  C    4.653331   3.727522   3.301978   2.688206   3.101311
     9  O    4.589913   3.925677   3.673785   3.456753   3.910544
    10  C    4.203140   3.151953   3.117157   2.476094   3.400068
    11  C    3.268854   2.493238   3.159095   3.142703   4.414925
    12  C    2.407413   1.527027   2.499631   2.763084   4.239832
    13  O    3.505563   2.417960   2.723575   2.392813   3.709385
    14  C    3.994150   2.783517   2.438947   1.508262   2.571055
    15  H    2.636340   2.177814   1.080324   2.124267   2.778164
    16  H    4.978264   4.120792   2.670973   2.129036   1.090439
    17  H    5.639701   4.536340   3.322526   2.125612   1.091591
    18  H    6.521667   5.587117   4.311170   3.416145   2.153073
    19  H    5.149255   4.392165   3.226504   2.798486   2.162850
    20  H    6.215463   5.097865   4.301085   3.113762   2.738610
    21  H    6.547951   5.619187   4.811377   3.946796   3.475686
    22  H    5.188164   4.148473   4.161670   3.376044   4.109946
    23  H    3.032943   2.551101   3.233340   3.493168   4.681518
    24  H    4.031697   3.392767   4.202696   4.128145   5.374978
    25  H    2.610870   2.167955   3.398313   3.792332   5.275889
    26  H    5.026036   3.812814   3.327415   2.171812   2.707165
                    6          7          8          9         10
     6  C    0.000000
     7  C    1.536303   0.000000
     8  C    2.487118   1.513326   0.000000
     9  O    3.115726   2.384839   1.206959   0.000000
    10  C    3.431965   2.564026   1.519736   2.395137   0.000000
    11  C    4.585627   3.916588   2.561136   2.832827   1.534117
    12  C    4.899300   4.635266   3.538160   3.957824   2.411935
    13  O    4.603454   4.354084   3.643349   4.432170   2.352146
    14  C    3.287489   2.992641   2.549644   3.541826   1.562499
    15  H    3.539269   4.398825   3.981467   4.171583   4.082410
    16  H    2.152863   3.479022   3.996092   4.623305   4.357926
    17  H    2.159652   2.860897   3.640205   4.630568   3.713729
    18  H    1.090395   2.157305   3.422681   4.021404   4.391824
    19  H    1.091542   2.150078   2.626137   2.822716   3.769718
    20  H    2.170556   1.089165   2.162547   3.241347   2.628985
    21  H    2.146668   1.091512   2.120789   2.578430   3.390776
    22  H    4.041860   2.877559   2.126578   3.019144   1.093088
    23  H    4.636556   4.058931   2.575919   2.360326   2.181390
    24  H    5.509803   4.646698   3.313288   3.549055   2.183251
    25  H    5.988678   5.692521   4.543373   4.875592   3.341350
    26  H    3.473463   3.123738   3.125420   4.262980   2.240336
                   11         12         13         14         15
    11  C    0.000000
    12  C    1.549978   0.000000
    13  O    2.342141   1.412724   0.000000
    14  C    2.412404   2.214336   1.407141   0.000000
    15  H    4.113820   3.485654   3.771664   3.451198   0.000000
    16  H    5.189767   4.828863   4.396271   3.459256   2.525181
    17  H    4.890254   4.673619   3.829579   2.693931   3.711659
    18  H    5.633780   5.940855   5.526089   4.182716   4.391057
    19  H    4.648028   4.999576   4.996852   3.813218   3.192209
    20  H    4.144317   4.767531   4.190485   2.823307   4.949236
    21  H    4.656182   5.560570   5.382882   4.049101   5.229236
    22  H    2.182852   3.155997   2.869736   2.188206   5.141992
    23  H    1.090018   2.202071   3.249510   3.176772   3.993113
    24  H    1.087947   2.177444   2.851200   3.145231   5.173115
    25  H    2.224550   1.090543   2.047023   3.177140   4.289510
    26  H    3.331115   3.167241   2.025787   1.090384   4.252106
                   16         17         18         19         20
    16  H    0.000000
    17  H    1.774377   0.000000
    18  H    2.511338   2.424670   0.000000
    19  H    2.425534   3.054344   1.768568   0.000000
    20  H    3.769133   2.621837   2.556253   3.055110   0.000000
    21  H    4.280791   3.778619   2.407244   2.507178   1.780638
    22  H    5.147578   4.189097   4.860630   4.531600   2.621027
    23  H    5.347056   5.345632   5.703922   4.448730   4.542559
    24  H    6.204463   5.733914   6.519922   5.633290   4.739209
    25  H    5.810874   5.658720   7.027022   6.068804   5.777842
    26  H    3.650546   2.378227   4.155025   4.245983   2.581272
                   21         22         23         24         25
    21  H    0.000000
    22  H    3.551250   0.000000
    23  H    4.647961   2.928010   0.000000
    24  H    5.299886   2.331311   1.773309   0.000000
    25  H    6.597321   3.909320   2.806320   2.409860   0.000000
    26  H    4.157037   2.417606   4.167087   3.879536   4.007455
                   26
    26  H    0.000000
 Stoichiometry    C11H12O3
 Framework group  C1[X(C11H12O3)]
 Deg. of freedom    72
 Full point group                 C1      NOp   1
 Largest Abelian subgroup         C1      NOp   1
 Largest concise Abelian subgroup C1      NOp   1
                         Standard orientation:                         
 ---------------------------------------------------------------------
 Center     Atomic      Atomic             Coordinates (Angstroms)
 Number     Number       Type             X           Y           Z
 ---------------------------------------------------------------------
      1          8           0        2.793249   -0.767495   -1.484718
      2          6           0        1.947352   -0.647269   -0.619512
      3          6           0        0.712678   -1.426270   -0.569236
      4          6           0       -0.226548   -1.155011    0.348601
      5          6           0       -1.577700   -1.787178    0.380039
      6          6           0       -2.585251   -0.921023   -0.394515
      7          6           0       -2.565738    0.545186    0.063827
      8          6           0       -1.284028    1.198516   -0.405783
      9          8           0       -1.142812    1.592995   -1.537683
     10          6           0       -0.184824    1.303714    0.638382
     11          6           0        1.197131    1.631674    0.058589
     12          6           0        2.048714    0.407187    0.480334
     13          8           0        1.437612   -0.052733    1.668112
     14          6           0        0.067245   -0.064949    1.348753
     15          1           0        0.584922   -2.197444   -1.314937
     16          1           0       -1.539287   -2.775934   -0.078157
     17          1           0       -1.912280   -1.891011    1.413890
     18          1           0       -3.585491   -1.329997   -0.248835
     19          1           0       -2.352488   -0.956208   -1.460371
     20          1           0       -2.667883    0.605307    1.146523
     21          1           0       -3.400588    1.064718   -0.409997
     22          1           0       -0.493030    2.050151    1.375052
     23          1           0        1.156181    1.743935   -1.024859
     24          1           0        1.609033    2.539736    0.493776
     25          1           0        3.091535    0.649753    0.687625
     26          1           0       -0.489201   -0.192607    2.277736
 ---------------------------------------------------------------------
 Rotational constants (GHZ):           1.1693734           0.6786310           0.6167766
 Leave Link  202 at Sat Jan 24 09:45:51 2026, MaxMem=  4294967296 cpu:               0.3 elap:               0.0
 (Enter /root/g16/l301.exe)
 Standard basis: def2SVP (5D, 7F)
 Ernie: Thresh=  0.10000D-02 Tol=  0.10000D-05 Strict=F.
 There are   270 symmetry adapted cartesian basis functions of A   symmetry.
 There are   256 symmetry adapted basis functions of A   symmetry.
   256 basis functions,   434 primitive gaussians,   270 cartesian basis functions
    51 alpha electrons       51 beta electrons
       nuclear repulsion energy       952.8093263127 Hartrees.
 IExCor=  402 DFT=T Ex+Corr=B3LYP ExCW=0 ScaHFX=  0.200000
 ScaDFX=  0.800000  0.720000  1.000000  0.810000 ScalE2=  1.000000  1.000000
 IRadAn=      5 IRanWt=     -1 IRanGd=            0 ICorTp=0 IEmpDi=141
 NAtoms=   26 NActive=   26 NUniq=   26 SFac= 1.00D+00 NAtFMM=   60 NAOKFM=F Big=F
 Integral buffers will be    131072 words long.
 Raffenetti 2 integral format.
 Two-electron integral symmetry is turned on.
 R6Disp:  Grimme-D3(BJ) Dispersion energy=       -0.0579399555 Hartrees.
 Nuclear repulsion after empirical dispersion term =      952.7513863571 Hartrees.
 Force inversion solution in PCM.
 ------------------------------------------------------------------------------
 Polarizable Continuum Model (PCM)
 =================================
 Model                : PCM.
 Atomic radii         : UFF (Universal Force Field).
 Polarization charges : Total charges.
 Charge compensation  : None.
 Solution method      : Matrix inversion.
 Cavity type          : Scaled VdW (van der Waals Surface) (Alpha=1.100).
 Cavity algorithm     : GePol (No added spheres)
                        Default sphere list used, NSphG=   26.
                        Lebedev-Laikov grids with approx.  5.0 points / Ang**2.
                        Smoothing algorithm: York/Karplus (Gamma=1.0000).
                        Polarization charges: spherical gaussians, with
                                              point-specific exponents (IZeta= 3).
                        Self-potential: point-specific (ISelfS= 7).
                        Self-field    : sphere-specific E.n sum rule (ISelfD= 2).
 1st derivatives      : Analytical E(r).r(x)/FMM algorithm (CHGder, D1EAlg=3).
                        Cavity 1st derivative terms included.
 2nd derivatives      : Analytical E(r).r(xy)/FMM algorithm (CHGder, D2EAlg=3).
                        Cavity 2nd derivative terms included.
 Solvent              : Acetone, Eps=  20.493000 Eps(inf)=   1.846337
 ------------------------------------------------------------------------------
 GePol: Number of generator spheres                  =      26
 GePol: Total number of spheres                      =      26
 GePol: Number of exposed spheres                    =      26 (100.00%)
 GePol: Number of points                             =    1790
 GePol: Average weight of points                     =       0.13
 GePol: Minimum weight of points                     =   0.25D-09
 GePol: Maximum weight of points                     =    0.20577
 GePol: Number of points with low weight             =     125
 GePol: Fraction of low-weight points (<1% of avg)   =       6.98%
 GePol: Cavity surface area                          =    235.763 Ang**2
 GePol: Cavity volume                                =    256.861 Ang**3
 Leave Link  301 at Sat Jan 24 09:45:51 2026, MaxMem=  4294967296 cpu:               0.5 elap:               0.0
 (Enter /root/g16/l302.exe)
 NPDir=0 NMtPBC=     1 NCelOv=     1 NCel=       1 NClECP=     1 NCelD=      1
         NCelK=      1 NCelE2=     1 NClLst=     1 CellRange=     0.0.
 One-electron integrals computed using PRISM.
 One-electron integral symmetry used in STVInt
   1 Symmetry operations used in ECPInt.
 ECPInt:  NShTT=    7260 NPrTT=   26324 LenC2=    7150 LenP2D=   19951.
 LDataN:  DoStor=T MaxTD1= 4 Len=   56
 NBasis=   256 RedAO= T EigKep=  3.31D-04  NBF=   256
 NBsUse=   256 1.00D-06 EigRej= -1.00D+00 NBFU=   256
 Precomputing XC quadrature grid using
 IXCGrd= 4 IRadAn=           5 IRanWt=          -1 IRanGd=           0 AccXCQ= 0.00D+00.
 Generated NRdTot=       0 NPtTot=           0 NUsed=           0 NTot=          32
 NSgBfM=   270   270   270   270   270 MxSgAt=    26 MxSgA2=    26.
 Leave Link  302 at Sat Jan 24 09:45:52 2026, MaxMem=  4294967296 cpu:               2.0 elap:               0.1
 (Enter /root/g16/l303.exe)
 DipDrv:  MaxL=1.
 Leave Link  303 at Sat Jan 24 09:45:52 2026, MaxMem=  4294967296 cpu:               0.2 elap:               0.0
 (Enter /root/g16/l401.exe)
 ExpMin= 1.22D-01 ExpMax= 2.27D+03 ExpMxC= 3.41D+02 IAcc=3 IRadAn=         5 AccDes= 0.00D+00
 Harris functional with IExCor=  402 and IRadAn=       5 diagonalized for initial guess.
 HarFok:  IExCor=  402 AccDes= 0.00D+00 IRadAn=         5 IDoV= 1 UseB2=F ITyADJ=14
 ICtDFT=  3500011 ScaDFX=  1.000000  1.000000  1.000000  1.000000
 FoFCou: FMM=F IPFlag=           0 FMFlag=      100000 FMFlg1=           0
         NFxFlg=           0 DoJE=T BraDBF=F KetDBF=T FulRan=T
         wScrn=  0.000000 ICntrl=       500 IOpCl=  0 I1Cent=   200000004 NGrid=           0
         NMat0=    1 NMatS0=      1 NMatT0=    0 NMatD0=    1 NMtDS0=    0 NMtDT0=    0
 Petite list used in FoFCou.
 Harris En= -651.606210453017    
 JPrj=0 DoOrth=F DoCkMO=F.
 Leave Link  401 at Sat Jan 24 09:45:52 2026, MaxMem=  4294967296 cpu:               6.8 elap:               0.4
 (Enter /root/g16/l502.exe)
 Integral symmetry usage will be decided dynamically.
 Closed shell SCF:
 Using DIIS extrapolation, IDIIS=  1040.
 NGot=  4294967296 LenX=  4294814202 LenY=  4294740861
 Requested convergence on RMS density matrix=1.00D-08 within 128 cycles.
 Requested convergence on MAX density matrix=1.00D-06.
 Requested convergence on             energy=1.00D-06.
 No special actions if energy rises.
 Fock matrices will be formed incrementally for  20 cycles.

 Cycle   1  Pass 1  IDiag  1:
 FoFJK:  IHMeth= 1 ICntrl=       0 DoSepK=F KAlg= 0 I1Cent=           0 FoldK=F
 IRaf= 960000000 NMat=       1 IRICut=       1 DoRegI=T DoRafI=F ISym2E= 0 IDoP0=0 IntGTp=1.
 FoFCou: FMM=F IPFlag=           0 FMFlag=      100000 FMFlg1=           0
         NFxFlg=           0 DoJE=F BraDBF=F KetDBF=F FulRan=T
         wScrn=  0.000000 ICntrl=         0 IOpCl=  0 I1Cent=           0 NGrid=           0
         NMat0=    1 NMatS0=      1 NMatT0=    0 NMatD0=    1 NMtDS0=    0 NMtDT0=    0
 Symmetry not used in FoFCou.
 Inv3:  Mode=1 IEnd=     9612300.
 Iteration    1 A*A^-1 deviation from unit magnitude is 3.00D-15 for    754.
 Iteration    1 A*A^-1 deviation from orthogonality  is 1.83D-15 for    860    566.
 Iteration    1 A^-1*A deviation from unit magnitude is 3.00D-15 for    754.
 Iteration    1 A^-1*A deviation from orthogonality  is 1.93D-15 for   1414    339.
 E= -651.341019869927    
 DIIS: error= 2.02D-02 at cycle   1 NSaved=   1.
 NSaved= 1 IEnMin= 1 EnMin= -651.341019869927     IErMin= 1 ErrMin= 2.02D-02
 ErrMax= 2.02D-02  0.00D+00 EMaxC= 1.00D-01 BMatC= 3.04D-01 BMatP= 3.04D-01
 IDIUse=3 WtCom= 7.98D-01 WtEn= 2.02D-01
 Coeff-Com:  0.100D+01
 Coeff-En:   0.100D+01
 Coeff:      0.100D+01
 Gap=     0.147 Goal=   None    Shift=    0.000
 GapD=    0.147 DampG=1.000 DampE=0.500 DampFc=0.5000 IDamp=-1.
 Damping current iteration by 5.00D-01
 RMSDP=7.10D-03 MaxDP=3.40D-01              OVMax= 1.75D-01

 Cycle   2  Pass 1  IDiag  1:
 RMSU=  3.54D-03    CP:  9.88D-01
 E= -651.448473924422     Delta-E=       -0.107454054495 Rises=F Damp=T
 DIIS: error= 6.83D-03 at cycle   2 NSaved=   2.
 NSaved= 2 IEnMin= 2 EnMin= -651.448473924422     IErMin= 2 ErrMin= 6.83D-03
 ErrMax= 6.83D-03  0.00D+00 EMaxC= 1.00D-01 BMatC= 3.29D-02 BMatP= 3.04D-01
 IDIUse=3 WtCom= 9.32D-01 WtEn= 6.83D-02
 Coeff-Com:  0.159D+00 0.841D+00
 Coeff-En:   0.221D+00 0.779D+00
 Coeff:      0.163D+00 0.837D+00
 Gap=     0.193 Goal=   None    Shift=    0.000
 RMSDP=2.14D-03 MaxDP=1.16D-01 DE=-1.07D-01 OVMax= 1.51D-01

 Cycle   3  Pass 1  IDiag  1:
 RMSU=  2.04D-03    CP:  9.63D-01  8.99D-01
 E= -651.595724906720     Delta-E=       -0.147250982298 Rises=F Damp=F
 DIIS: error= 8.49D-03 at cycle   3 NSaved=   3.
 NSaved= 3 IEnMin= 3 EnMin= -651.595724906720     IErMin= 2 ErrMin= 6.83D-03
 ErrMax= 8.49D-03  0.00D+00 EMaxC= 1.00D-01 BMatC= 3.50D-02 BMatP= 3.29D-02
 IDIUse=3 WtCom= 9.15D-01 WtEn= 8.49D-02
 Coeff-Com:  0.259D-01 0.507D+00 0.467D+00
 Coeff-En:   0.000D+00 0.000D+00 0.100D+01
 Coeff:      0.237D-01 0.464D+00 0.512D+00
 Gap=     0.175 Goal=   None    Shift=    0.000
 RMSDP=1.20D-03 MaxDP=4.76D-02 DE=-1.47D-01 OVMax= 5.93D-02

 Cycle   4  Pass 1  IDiag  1:
 RMSU=  8.91D-04    CP:  9.72D-01  1.02D+00  6.83D-01
 E= -651.620982502110     Delta-E=       -0.025257595389 Rises=F Damp=F
 DIIS: error= 3.36D-03 at cycle   4 NSaved=   4.
 NSaved= 4 IEnMin= 4 EnMin= -651.620982502110     IErMin= 4 ErrMin= 3.36D-03
 ErrMax= 3.36D-03  0.00D+00 EMaxC= 1.00D-01 BMatC= 6.17D-03 BMatP= 3.29D-02
 IDIUse=3 WtCom= 9.66D-01 WtEn= 3.36D-02
 Coeff-Com:  0.208D-02 0.131D+00 0.314D+00 0.553D+00
 Coeff-En:   0.000D+00 0.000D+00 0.176D+00 0.824D+00
 Coeff:      0.201D-02 0.126D+00 0.310D+00 0.562D+00
 Gap=     0.177 Goal=   None    Shift=    0.000
 RMSDP=5.26D-04 MaxDP=2.24D-02 DE=-2.53D-02 OVMax= 2.26D-02

 Cycle   5  Pass 1  IDiag  1:
 RMSU=  2.21D-04    CP:  9.69D-01  9.54D-01  7.51D-01  5.64D-01
 E= -651.626154410452     Delta-E=       -0.005171908343 Rises=F Damp=F
 DIIS: error= 4.32D-04 at cycle   5 NSaved=   5.
 NSaved= 5 IEnMin= 5 EnMin= -651.626154410452     IErMin= 5 ErrMin= 4.32D-04
 ErrMax= 4.32D-04  0.00D+00 EMaxC= 1.00D-01 BMatC= 1.62D-04 BMatP= 6.17D-03
 IDIUse=3 WtCom= 9.96D-01 WtEn= 4.32D-03
 Coeff-Com: -0.560D-03 0.206D-01 0.103D+00 0.248D+00 0.630D+00
 Coeff-En:   0.000D+00 0.000D+00 0.000D+00 0.000D+00 0.100D+01
 Coeff:     -0.557D-03 0.205D-01 0.102D+00 0.247D+00 0.631D+00
 Gap=     0.175 Goal=   None    Shift=    0.000
 RMSDP=9.39D-05 MaxDP=3.16D-03 DE=-5.17D-03 OVMax= 9.28D-03

 Cycle   6  Pass 1  IDiag  1:
 RMSU=  5.81D-05    CP:  9.69D-01  9.62D-01  7.52D-01  6.08D-01  7.48D-01
 E= -651.626273176723     Delta-E=       -0.000118766271 Rises=F Damp=F
 DIIS: error= 2.62D-04 at cycle   6 NSaved=   6.
 NSaved= 6 IEnMin= 6 EnMin= -651.626273176723     IErMin= 6 ErrMin= 2.62D-04
 ErrMax= 2.62D-04  0.00D+00 EMaxC= 1.00D-01 BMatC= 4.47D-05 BMatP= 1.62D-04
 IDIUse=3 WtCom= 9.97D-01 WtEn= 2.62D-03
 Coeff-Com: -0.412D-03-0.217D-03 0.333D-01 0.979D-01 0.399D+00 0.471D+00
 Coeff-En:   0.000D+00 0.000D+00 0.000D+00 0.000D+00 0.222D+00 0.778D+00
 Coeff:     -0.411D-03-0.217D-03 0.332D-01 0.977D-01 0.398D+00 0.472D+00
 Gap=     0.176 Goal=   None    Shift=    0.000
 RMSDP=3.20D-05 MaxDP=1.33D-03 DE=-1.19D-04 OVMax= 3.80D-03

 Cycle   7  Pass 1  IDiag  1:
 RMSU=  1.44D-05    CP:  9.69D-01  9.62D-01  7.55D-01  6.07D-01  7.72D-01
                    CP:  5.25D-01
 E= -651.626318309031     Delta-E=       -0.000045132308 Rises=F Damp=F
 DIIS: error= 4.51D-05 at cycle   7 NSaved=   7.
 NSaved= 7 IEnMin= 7 EnMin= -651.626318309031     IErMin= 7 ErrMin= 4.51D-05
 ErrMax= 4.51D-05  0.00D+00 EMaxC= 1.00D-01 BMatC= 1.36D-06 BMatP= 4.47D-05
 IDIUse=1 WtCom= 1.00D+00 WtEn= 0.00D+00
 Coeff-Com: -0.132D-03-0.131D-02 0.108D-01 0.336D-01 0.163D+00 0.234D+00
 Coeff-Com:  0.561D+00
 Coeff:     -0.132D-03-0.131D-02 0.108D-01 0.336D-01 0.163D+00 0.234D+00
 Coeff:      0.561D+00
 Gap=     0.176 Goal=   None    Shift=    0.000
 RMSDP=6.79D-06 MaxDP=2.22D-04 DE=-4.51D-05 OVMax= 3.74D-04

 Cycle   8  Pass 1  IDiag  1:
 RMSU=  4.29D-06    CP:  9.69D-01  9.62D-01  7.55D-01  6.09D-01  7.71D-01
                    CP:  5.27D-01  6.77D-01
 E= -651.626319515619     Delta-E=       -0.000001206587 Rises=F Damp=F
 DIIS: error= 9.75D-06 at cycle   8 NSaved=   8.
 NSaved= 8 IEnMin= 8 EnMin= -651.626319515619     IErMin= 8 ErrMin= 9.75D-06
 ErrMax= 9.75D-06  0.00D+00 EMaxC= 1.00D-01 BMatC= 1.08D-07 BMatP= 1.36D-06
 IDIUse=1 WtCom= 1.00D+00 WtEn= 0.00D+00
 Coeff-Com:  0.160D-04-0.673D-03 0.176D-02 0.558D-02 0.368D-01 0.606D-01
 Coeff-Com:  0.256D+00 0.640D+00
 Coeff:      0.160D-04-0.673D-03 0.176D-02 0.558D-02 0.368D-01 0.606D-01
 Coeff:      0.256D+00 0.640D+00
 Gap=     0.176 Goal=   None    Shift=    0.000
 RMSDP=2.16D-06 MaxDP=1.26D-04 DE=-1.21D-06 OVMax= 5.74D-05

 Cycle   9  Pass 1  IDiag  1:
 RMSU=  1.37D-06    CP:  9.69D-01  9.61D-01  7.55D-01  6.08D-01  7.75D-01
                    CP:  5.34D-01  7.08D-01  7.53D-01
 E= -651.626319598065     Delta-E=       -0.000000082446 Rises=F Damp=F
 DIIS: error= 5.82D-06 at cycle   9 NSaved=   9.
 NSaved= 9 IEnMin= 9 EnMin= -651.626319598065     IErMin= 9 ErrMin= 5.82D-06
 ErrMax= 5.82D-06  0.00D+00 EMaxC= 1.00D-01 BMatC= 1.76D-08 BMatP= 1.08D-07
 IDIUse=1 WtCom= 1.00D+00 WtEn= 0.00D+00
 Coeff-Com:  0.234D-04-0.307D-03 0.306D-03 0.870D-03 0.101D-01 0.175D-01
 Coeff-Com:  0.105D+00 0.364D+00 0.502D+00
 Coeff:      0.234D-04-0.307D-03 0.306D-03 0.870D-03 0.101D-01 0.175D-01
 Coeff:      0.105D+00 0.364D+00 0.502D+00
 Gap=     0.176 Goal=   None    Shift=    0.000
 RMSDP=7.56D-07 MaxDP=3.71D-05 DE=-8.24D-08 OVMax= 3.26D-05

 Cycle  10  Pass 1  IDiag  1:
 RMSU=  4.83D-07    CP:  9.69D-01  9.61D-01  7.55D-01  6.08D-01  7.75D-01
                    CP:  5.34D-01  7.12D-01  7.94D-01  6.41D-01
 E= -651.626319609917     Delta-E=       -0.000000011852 Rises=F Damp=F
 DIIS: error= 3.07D-06 at cycle  10 NSaved=  10.
 NSaved=10 IEnMin=10 EnMin= -651.626319609917     IErMin=10 ErrMin= 3.07D-06
 ErrMax= 3.07D-06  0.00D+00 EMaxC= 1.00D-01 BMatC= 2.43D-09 BMatP= 1.76D-08
 IDIUse=1 WtCom= 1.00D+00 WtEn= 0.00D+00
 Coeff-Com:  0.146D-04-0.718D-04-0.123D-03-0.509D-03-0.356D-03-0.705D-03
 Coeff-Com:  0.177D-01 0.105D+00 0.299D+00 0.580D+00
 Coeff:      0.146D-04-0.718D-04-0.123D-03-0.509D-03-0.356D-03-0.705D-03
 Coeff:      0.177D-01 0.105D+00 0.299D+00 0.580D+00
 Gap=     0.176 Goal=   None    Shift=    0.000
 RMSDP=2.77D-07 MaxDP=1.45D-05 DE=-1.19D-08 OVMax= 1.08D-05

 Cycle  11  Pass 1  IDiag  1:
 RMSU=  1.64D-07    CP:  9.69D-01  9.61D-01  7.56D-01  6.08D-01  7.75D-01
                    CP:  5.34D-01  7.15D-01  8.07D-01  7.11D-01  6.61D-01
 E= -651.626319611774     Delta-E=       -0.000000001857 Rises=F Damp=F
 DIIS: error= 6.15D-07 at cycle  11 NSaved=  11.
 NSaved=11 IEnMin=11 EnMin= -651.626319611774     IErMin=11 ErrMin= 6.15D-07
 ErrMax= 6.15D-07  0.00D+00 EMaxC= 1.00D-01 BMatC= 2.02D-10 BMatP= 2.43D-09
 IDIUse=1 WtCom= 1.00D+00 WtEn= 0.00D+00
 Coeff-Com:  0.668D-05-0.144D-04-0.839D-04-0.338D-03-0.921D-03-0.189D-02
 Coeff-Com:  0.112D-02 0.256D-01 0.117D+00 0.310D+00 0.549D+00
 Coeff:      0.668D-05-0.144D-04-0.839D-04-0.338D-03-0.921D-03-0.189D-02
 Coeff:      0.112D-02 0.256D-01 0.117D+00 0.310D+00 0.549D+00
 Gap=     0.176 Goal=   None    Shift=    0.000
 RMSDP=8.12D-08 MaxDP=3.83D-06 DE=-1.86D-09 OVMax= 2.91D-06

 Cycle  12  Pass 1  IDiag  1:
 RMSU=  5.47D-08    CP:  9.69D-01  9.61D-01  7.56D-01  6.08D-01  7.75D-01
                    CP:  5.33D-01  7.15D-01  8.12D-01  7.12D-01  7.13D-01
                    CP:  7.78D-01
 E= -651.626319611929     Delta-E=       -0.000000000155 Rises=F Damp=F
 DIIS: error= 1.77D-07 at cycle  12 NSaved=  12.
 NSaved=12 IEnMin=12 EnMin= -651.626319611929     IErMin=12 ErrMin= 1.77D-07
 ErrMax= 1.77D-07  0.00D+00 EMaxC= 1.00D-01 BMatC= 1.96D-11 BMatP= 2.02D-10
 IDIUse=1 WtCom= 1.00D+00 WtEn= 0.00D+00
 Coeff-Com:  0.154D-05 0.117D-05-0.244D-04-0.105D-03-0.397D-03-0.924D-03
 Coeff-Com: -0.164D-02-0.149D-02 0.197D-01 0.829D-01 0.278D+00 0.624D+00
 Coeff:      0.154D-05 0.117D-05-0.244D-04-0.105D-03-0.397D-03-0.924D-03
 Coeff:     -0.164D-02-0.149D-02 0.197D-01 0.829D-01 0.278D+00 0.624D+00
 Gap=     0.176 Goal=   None    Shift=    0.000
 RMSDP=2.40D-08 MaxDP=8.41D-07 DE=-1.55D-10 OVMax= 6.96D-07

 Cycle  13  Pass 1  IDiag  1:
 RMSU=  1.44D-08    CP:  9.69D-01  9.61D-01  7.56D-01  6.08D-01  7.75D-01
                    CP:  5.33D-01  7.15D-01  8.12D-01  7.17D-01  7.25D-01
                    CP:  8.07D-01  8.06D-01
 E= -651.626319611945     Delta-E=       -0.000000000015 Rises=F Damp=F
 DIIS: error= 3.26D-08 at cycle  13 NSaved=  13.
 NSaved=13 IEnMin=13 EnMin= -651.626319611945     IErMin=13 ErrMin= 3.26D-08
 ErrMax= 3.26D-08  0.00D+00 EMaxC= 1.00D-01 BMatC= 1.42D-12 BMatP= 1.96D-11
 IDIUse=1 WtCom= 1.00D+00 WtEn= 0.00D+00
 Coeff-Com:  0.344D-06 0.121D-05-0.449D-05-0.244D-04-0.104D-03-0.295D-03
 Coeff-Com: -0.717D-03-0.237D-02 0.989D-03 0.171D-01 0.905D-01 0.294D+00
 Coeff-Com:  0.601D+00
 Coeff:      0.344D-06 0.121D-05-0.449D-05-0.244D-04-0.104D-03-0.295D-03
 Coeff:     -0.717D-03-0.237D-02 0.989D-03 0.171D-01 0.905D-01 0.294D+00
 Coeff:      0.601D+00
 Gap=     0.176 Goal=   None    Shift=    0.000
 RMSDP=6.83D-09 MaxDP=2.58D-07 DE=-1.53D-11 OVMax= 2.84D-07

 Error on total polarization charges =  0.00885
 SCF Done:  E(RB3LYP) =  -651.626319612     A.U. after   13 cycles
            NFock= 13  Conv=0.68D-08     -V/T= 2.0094
 KE= 6.455434772424D+02 PE=-3.422647763423D+03 EE= 1.172726580211D+03
 Leave Link  502 at Sat Jan 24 09:46:07 2026, MaxMem=  4294967296 cpu:             254.5 elap:              15.2
 (Enter /root/g16/l801.exe)
 DoSCS=F DFT=T ScalE2(SS,OS)=  1.000000  1.000000
 Range of M.O.s used for correlation:     1   256
 NBasis=   256 NAE=    51 NBE=    51 NFC=     0 NFV=     0
 NROrb=    256 NOA=    51 NOB=    51 NVA=   205 NVB=   205
 Leave Link  801 at Sat Jan 24 09:46:07 2026, MaxMem=  4294967296 cpu:               0.1 elap:               0.0
 (Enter /root/g16/l1101.exe)
 Using compressed storage, NAtomX=    26.
 Will process     27 centers per pass.
   1 Symmetry operations used in ECPInt.
 ECPInt:  NShTT=    7260 NPrTT=   26324 LenC2=    7150 LenP2D=   19951.
 LDataN:  DoStor=T MaxTD1= 5 Len=  102
 R6Disp: Adding Grimme-D3(BJ) dispersion energy 1st derivatives to the gradient.
 Leave Link 1101 at Sat Jan 24 09:46:08 2026, MaxMem=  4294967296 cpu:               2.9 elap:               0.2
 (Enter /root/g16/l1102.exe)
 Symmetrizing basis deriv contribution to polar:
 IMax=3 JMax=2 DiffMx= 0.00D+00
 Leave Link 1102 at Sat Jan 24 09:46:08 2026, MaxMem=  4294967296 cpu:               0.3 elap:               0.0
 (Enter /root/g16/l1110.exe)
 Forming Gx(P) for the SCF density, NAtomX=    26.
 Integral derivatives from FoFJK, PRISM(SPDF).
 Do as many integral derivatives as possible in FoFJK.
 G2DrvN: MDV=    4294965288.
 G2DrvN: will do    27 centers at a time, making    1 passes.
 Calling FoFCou, ICntrl=  3107 FMM=F I1Cent=   0 AccDes= 0.00D+00.
 FoFJK:  IHMeth= 1 ICntrl=    3107 DoSepK=F KAlg= 0 I1Cent=           0 FoldK=F
 IRaf=         0 NMat=       1 IRICut=       1 DoRegI=T DoRafI=F ISym2E= 0 IDoP0=0 IntGTp=1.
 FoFCou: FMM=F IPFlag=           0 FMFlag=      100000 FMFlg1=           0
         NFxFlg=           0 DoJE=F BraDBF=F KetDBF=F FulRan=T
         wScrn=  0.000000 ICntrl=      3107 IOpCl=  0 I1Cent=           0 NGrid=           0
         NMat0=    1 NMatS0=      1 NMatT0=    0 NMatD0=    1 NMtDS0=    0 NMtDT0=    0
 Symmetry not used in FoFCou.
 NEqPCM:  Using equilibrium solvation (IEInf=0, Eps=  20.4930, EpsInf=   1.8463)
 G2PCM: DoFxE=T DoFxN=T DoGrad=T DoDP/DQ/DG/TGxP=FFFF NFrqRd=   0 IEInf=0 SqF1=F DoCFld=F IF1Alg=4.
 GePol: Maximum number of non-zero 1st derivatives   =     226
 End of G2Drv F.D. properties file   721 does not exist.
 End of G2Drv F.D. properties file   722 does not exist.
 End of G2Drv F.D. properties file   788 does not exist.
 Leave Link 1110 at Sat Jan 24 09:46:31 2026, MaxMem=  4294967296 cpu:             366.1 elap:              23.6
 (Enter /root/g16/l1002.exe)
 Minotr:  Closed shell wavefunction.
          IDoAtm=11111111111111111111111111
 NEqPCM:  Using equilibrium solvation (IEInf=0, Eps=  20.4930, EpsInf=   1.8463)
          Direct CPHF calculation.
          Differentiating once with respect to nuclear coordinates.
          Requested convergence is 1.0D-08 RMS, and 1.0D-07 maximum.
          Secondary convergence is 1.0D-12 RMS, and 1.0D-12 maximum.
          NewPWx=T KeepS1=F KeepF1=F KeepIn=T MapXYZ=F SortEE=F KeepMc=T.
         7763 words used for storage of precomputed grid.
 Keep R1 ints in memory in canonical form, NReq=558668835.
 FoFCou: FMM=F IPFlag=           0 FMFlag=           0 FMFlg1=           0
         NFxFlg=           0 DoJE=F BraDBF=F KetDBF=F FulRan=T
         wScrn=  0.000000 ICntrl=       600 IOpCl=  0 I1Cent=           0 NGrid=           0
         NMat0=    1 NMatS0=  32896 NMatT0=    0 NMatD0=    1 NMtDS0=    0 NMtDT0=    0
 Symmetry not used in FoFCou.
 Two-electron integral symmetry not used.
          MDV=    4294967296 using IRadAn=       1.
          Solving linear equations simultaneously, MaxMat=       0.
          There are    81 degrees of freedom in the 1st order CPHF.  IDoFFX=6 NUNeed=     0.
     75 vectors produced by pass  0 Test12= 1.29D-14 1.23D-09 XBig12= 1.70D-01 9.18D-02.
 AX will form    75 AO Fock derivatives at one time.
     75 vectors produced by pass  1 Test12= 1.29D-14 1.23D-09 XBig12= 3.04D-02 5.90D-02.
     75 vectors produced by pass  2 Test12= 1.29D-14 1.23D-09 XBig12= 3.23D-04 2.98D-03.
     75 vectors produced by pass  3 Test12= 1.29D-14 1.23D-09 XBig12= 1.52D-06 1.46D-04.
     75 vectors produced by pass  4 Test12= 1.29D-14 1.23D-09 XBig12= 5.21D-09 7.58D-06.
     53 vectors produced by pass  5 Test12= 1.29D-14 1.23D-09 XBig12= 6.30D-12 2.32D-07.
     12 vectors produced by pass  6 Test12= 1.29D-14 1.23D-09 XBig12= 6.16D-15 6.46D-09.
 InvSVY:  IOpt=1 It=  1 EMax= 3.89D-16
 Solved reduced A of dimension   440 with    81 vectors.
 End of Minotr F.D. properties file   721 does not exist.
 End of Minotr F.D. properties file   722 does not exist.
 End of Minotr F.D. properties file   788 does not exist.
 Leave Link 1002 at Sat Jan 24 09:47:02 2026, MaxMem=  4294967296 cpu:             483.8 elap:              30.5
 (Enter /root/g16/l601.exe)
 Copying SCF densities to generalized density rwf, IOpCl= 0 IROHF=0.

 **********************************************************************

            Population analysis using the SCF density.

 **********************************************************************

 Orbital symmetries:
       Occupied  (A) (A) (A) (A) (A) (A) (A) (A) (A) (A) (A) (A)
                 (A) (A) (A) (A) (A) (A) (A) (A) (A) (A) (A) (A)
                 (A) (A) (A) (A) (A) (A) (A) (A) (A) (A) (A) (A)
                 (A) (A) (A) (A) (A) (A) (A) (A) (A) (A) (A) (A)
                 (A) (A) (A)
       Virtual   (A) (A) (A) (A) (A) (A) (A) (A) (A) (A) (A) (A)
                 (A) (A) (A) (A) (A) (A) (A) (A) (A) (A) (A) (A)
                 (A) (A) (A) (A) (A) (A) (A) (A) (A) (A) (A) (A)
                 (A) (A) (A) (A) (A) (A) (A) (A) (A) (A) (A) (A)
                 (A) (A) (A) (A) (A) (A) (A) (A) (A) (A) (A) (A)
                 (A) (A) (A) (A) (A) (A) (A) (A) (A) (A) (A) (A)
                 (A) (A) (A) (A) (A) (A) (A) (A) (A) (A) (A) (A)
                 (A) (A) (A) (A) (A) (A) (A) (A) (A) (A) (A) (A)
                 (A) (A) (A) (A) (A) (A) (A) (A) (A) (A) (A) (A)
                 (A) (A) (A) (A) (A) (A) (A) (A) (A) (A) (A) (A)
                 (A) (A) (A) (A) (A) (A) (A) (A) (A) (A) (A) (A)
                 (A) (A) (A) (A) (A) (A) (A) (A) (A) (A) (A) (A)
                 (A) (A) (A) (A) (A) (A) (A) (A) (A) (A) (A) (A)
                 (A) (A) (A) (A) (A) (A) (A) (A) (A) (A) (A) (A)
                 (A) (A) (A) (A) (A) (A) (A) (A) (A) (A) (A) (A)
                 (A) (A) (A) (A) (A) (A) (A) (A) (A) (A) (A) (A)
                 (A) (A) (A) (A) (A) (A) (A) (A) (A) (A) (A) (A)
                 (A)
 The electronic state is 1-A.
 Alpha  occ. eigenvalues --  -19.15198 -19.13870 -19.12727 -10.28356 -10.27299
 Alpha  occ. eigenvalues --  -10.25772 -10.24348 -10.22272 -10.20884 -10.20266
 Alpha  occ. eigenvalues --  -10.20067 -10.19646 -10.19503 -10.19499  -1.06867
 Alpha  occ. eigenvalues --   -1.04863  -1.03182  -0.85467  -0.79950  -0.79293
 Alpha  occ. eigenvalues --   -0.76630  -0.72394  -0.64435  -0.64253  -0.62023
 Alpha  occ. eigenvalues --   -0.57870  -0.54806  -0.53230  -0.51993  -0.51320
 Alpha  occ. eigenvalues --   -0.48556  -0.47819  -0.45878  -0.44855  -0.43955
 Alpha  occ. eigenvalues --   -0.42810  -0.42373  -0.41805  -0.41028  -0.39337
 Alpha  occ. eigenvalues --   -0.38718  -0.37092  -0.36819  -0.36199  -0.35482
 Alpha  occ. eigenvalues --   -0.34858  -0.33534  -0.30142  -0.27699  -0.26235
 Alpha  occ. eigenvalues --   -0.24298
 Alpha virt. eigenvalues --   -0.06742  -0.02880   0.03589   0.05222   0.06701
 Alpha virt. eigenvalues --    0.08264   0.09725   0.10507   0.11502   0.12280
 Alpha virt. eigenvalues --    0.12748   0.13375   0.14131   0.15001   0.15342
 Alpha virt. eigenvalues --    0.16070   0.17933   0.18765   0.20580   0.21278
 Alpha virt. eigenvalues --    0.22459   0.24460   0.25317   0.25865   0.26940
 Alpha virt. eigenvalues --    0.28560   0.29829   0.32615   0.33941   0.35694
 Alpha virt. eigenvalues --    0.37656   0.41483   0.42926   0.43491   0.43971
 Alpha virt. eigenvalues --    0.46931   0.48034   0.48944   0.50562   0.51206
 Alpha virt. eigenvalues --    0.52487   0.54425   0.55512   0.56210   0.57415
 Alpha virt. eigenvalues --    0.57723   0.58973   0.59558   0.60660   0.61218
 Alpha virt. eigenvalues --    0.61846   0.63060   0.63802   0.64442   0.65266
 Alpha virt. eigenvalues --    0.66022   0.66067   0.67008   0.67083   0.67716
 Alpha virt. eigenvalues --    0.67923   0.68313   0.68866   0.69904   0.70278
 Alpha virt. eigenvalues --    0.70893   0.71807   0.72818   0.74544   0.75560
 Alpha virt. eigenvalues --    0.77844   0.79651   0.81785   0.84341   0.85496
 Alpha virt. eigenvalues --    0.86089   0.88219   0.92012   0.94580   0.95916
 Alpha virt. eigenvalues --    0.98766   0.99523   1.03100   1.06343   1.09131
 Alpha virt. eigenvalues --    1.10134   1.13997   1.14723   1.16346   1.17315
 Alpha virt. eigenvalues --    1.19772   1.20740   1.25293   1.26905   1.28318
 Alpha virt. eigenvalues --    1.30388   1.31700   1.36335   1.39092   1.41246
 Alpha virt. eigenvalues --    1.42251   1.43877   1.45657   1.48647   1.52726
 Alpha virt. eigenvalues --    1.54966   1.55478   1.56892   1.60684   1.62661
 Alpha virt. eigenvalues --    1.65645   1.66532   1.67511   1.69748   1.71068
 Alpha virt. eigenvalues --    1.71879   1.73363   1.74266   1.75321   1.75922
 Alpha virt. eigenvalues --    1.77615   1.78567   1.78969   1.80141   1.80637
 Alpha virt. eigenvalues --    1.81969   1.83278   1.83821   1.84837   1.86020
 Alpha virt. eigenvalues --    1.87352   1.88773   1.89356   1.90071   1.91194
 Alpha virt. eigenvalues --    1.92563   1.94098   1.95120   1.96726   1.97657
 Alpha virt. eigenvalues --    1.98603   2.00911   2.02401   2.05392   2.06829
 Alpha virt. eigenvalues --    2.08710   2.10179   2.12767   2.14117   2.16332
 Alpha virt. eigenvalues --    2.18274   2.19329   2.21687   2.24392   2.24424
 Alpha virt. eigenvalues --    2.27035   2.30231   2.30706   2.31591   2.33400
 Alpha virt. eigenvalues --    2.37101   2.37592   2.40037   2.42617   2.46629
 Alpha virt. eigenvalues --    2.48288   2.51732   2.53804   2.55682   2.57886
 Alpha virt. eigenvalues --    2.60085   2.60609   2.63745   2.66528   2.68726
 Alpha virt. eigenvalues --    2.69725   2.71115   2.72701   2.75733   2.77447
 Alpha virt. eigenvalues --    2.79327   2.81789   2.84415   2.87943   2.89600
 Alpha virt. eigenvalues --    2.90582   2.91538   2.93769   2.94971   2.97777
 Alpha virt. eigenvalues --    3.01079   3.03351   3.05143   3.06113   3.08850
 Alpha virt. eigenvalues --    3.13826   3.16048   3.18645   3.22923   3.31506
 Alpha virt. eigenvalues --    3.38907   3.40584   3.58110   3.62631   3.63789
          Condensed to atoms (all electrons):
               1          2          3          4          5          6
     1  O    7.668891   0.721362  -0.095216   0.006637  -0.000101   0.000003
     2  C    0.721362   4.885009   0.182867   0.089382   0.007226  -0.000433
     3  C   -0.095216   0.182867   5.482154   0.244892  -0.056339  -0.007131
     4  C    0.006637   0.089382   0.244892   5.521633   0.397396  -0.050173
     5  C   -0.000101   0.007226  -0.056339   0.397396   4.542167   0.435137
     6  C    0.000003  -0.000433  -0.007131  -0.050173   0.435137   4.537947
     7  C    0.000000  -0.000097  -0.002579  -0.018221  -0.068982   0.437911
     8  C    0.000022   0.003729   0.000565  -0.003498  -0.023164  -0.032906
     9  O    0.000004  -0.000402   0.001543  -0.004771   0.000570  -0.006136
    10  C    0.000067  -0.021664  -0.011003  -0.018245   0.011843  -0.006753
    11  C    0.000069  -0.050120   0.025218  -0.054624  -0.001683   0.000071
    12  C   -0.085727   0.209409  -0.152116  -0.004368  -0.000287   0.000012
    13  O    0.001477  -0.028915   0.001874  -0.052122   0.003174   0.000131
    14  C    0.000704  -0.036986  -0.006364   0.201708  -0.069113  -0.004520
    15  H    0.005721  -0.050362   0.410409  -0.060952  -0.016960  -0.000639
    16  H   -0.000004   0.001009  -0.019182  -0.001440   0.339504  -0.003213
    17  H    0.000002  -0.000892   0.011534  -0.011348   0.349139  -0.010630
    18  H   -0.000000   0.000025   0.000104   0.008852  -0.017415   0.361478
    19  H   -0.000002  -0.000849   0.006277  -0.013456  -0.008025   0.361114
    20  H   -0.000000  -0.000106   0.000746  -0.013976   0.003507  -0.020436
    21  H    0.000000   0.000006  -0.000076   0.001361   0.009063   0.007960
    22  H   -0.000009   0.000048   0.000351   0.005869  -0.000301   0.000429
    23  H    0.002969   0.000818   0.000122   0.001063   0.000091   0.000049
    24  H   -0.000225   0.006206  -0.001546   0.001364   0.000001  -0.000025
    25  H    0.008724  -0.019459   0.013243   0.000409   0.000084   0.000002
    26  H    0.000015   0.001005   0.008376  -0.028437  -0.008028  -0.001406
               7          8          9         10         11         12
     1  O    0.000000   0.000022   0.000004   0.000067   0.000069  -0.085727
     2  C   -0.000097   0.003729  -0.000402  -0.021664  -0.050120   0.209409
     3  C   -0.002579   0.000565   0.001543  -0.011003   0.025218  -0.152116
     4  C   -0.018221  -0.003498  -0.004771  -0.018245  -0.054624  -0.004368
     5  C   -0.068982  -0.023164   0.000570   0.011843  -0.001683  -0.000287
     6  C    0.437911  -0.032906  -0.006136  -0.006753   0.000071   0.000012
     7  C    4.820164   0.369419  -0.082664  -0.176823   0.011821  -0.000083
     8  C    0.369419   4.896133   0.735470  -0.013309   0.006340  -0.004974
     9  O   -0.082664   0.735470   7.649772  -0.139028   0.008484  -0.000451
    10  C   -0.176823  -0.013309  -0.139028   5.917136   0.218142  -0.049572
    11  C    0.011821   0.006340   0.008484   0.218142   4.733687   0.347122
    12  C   -0.000083  -0.004974  -0.000451  -0.049572   0.347122   5.083905
    13  O   -0.000422   0.003741  -0.000021  -0.055914  -0.063703   0.265404
    14  C    0.026085   0.036686   0.006356   0.164892  -0.018267  -0.053772
    15  H    0.000152   0.000665   0.000057  -0.001862  -0.000659   0.016583
    16  H    0.009711   0.000640  -0.000013  -0.001293   0.000066  -0.000247
    17  H   -0.009129  -0.003218  -0.000042   0.002123  -0.000059   0.000400
    18  H   -0.009884   0.007687  -0.000113  -0.000797   0.000033  -0.000008
    19  H   -0.043928  -0.003289   0.008687   0.003297  -0.000043   0.000120
    20  H    0.333046   0.001871   0.003814  -0.003681   0.000717  -0.000026
    21  H    0.306109   0.001086   0.004076   0.019168  -0.000804   0.000013
    22  H   -0.002971   0.022212   0.002005   0.244021   0.020989  -0.002635
    23  H    0.003231  -0.016242   0.027181  -0.003618   0.319938  -0.004994
    24  H   -0.000411   0.005953   0.000372   0.014676   0.307108   0.017371
    25  H    0.000016  -0.000781  -0.000025   0.010868  -0.007991   0.324422
    26  H    0.003892  -0.008627  -0.000187   0.003321   0.009966   0.003358
              13         14         15         16         17         18
     1  O    0.001477   0.000704   0.005721  -0.000004   0.000002  -0.000000
     2  C   -0.028915  -0.036986  -0.050362   0.001009  -0.000892   0.000025
     3  C    0.001874  -0.006364   0.410409  -0.019182   0.011534   0.000104
     4  C   -0.052122   0.201708  -0.060952  -0.001440  -0.011348   0.008852
     5  C    0.003174  -0.069113  -0.016960   0.339504   0.349139  -0.017415
     6  C    0.000131  -0.004520  -0.000639  -0.003213  -0.010630   0.361478
     7  C   -0.000422   0.026085   0.000152   0.009711  -0.009129  -0.009884
     8  C    0.003741   0.036686   0.000665   0.000640  -0.003218   0.007687
     9  O   -0.000021   0.006356   0.000057  -0.000013  -0.000042  -0.000113
    10  C   -0.055914   0.164892  -0.001862  -0.001293   0.002123  -0.000797
    11  C   -0.063703  -0.018267  -0.000659   0.000066  -0.000059   0.000033
    12  C    0.265404  -0.053772   0.016583  -0.000247   0.000400  -0.000008
    13  O    7.999656   0.311827  -0.000871  -0.000212   0.000251   0.000003
    14  C    0.311827   4.830300   0.011052   0.012237  -0.013608  -0.000029
    15  H   -0.000871   0.011052   0.696898   0.005778   0.000336  -0.000098
    16  H   -0.000212   0.012237   0.005778   0.684642  -0.029649  -0.002661
    17  H    0.000251  -0.013608   0.000336  -0.029649   0.690556  -0.011173
    18  H    0.000003  -0.000029  -0.000098  -0.002661  -0.011173   0.679907
    19  H    0.000001  -0.001297   0.000970  -0.011084   0.008415  -0.025762
    20  H    0.000085   0.005826  -0.000007   0.000019   0.004238  -0.005576
    21  H    0.000002  -0.001975  -0.000008  -0.000479   0.000143  -0.011888
    22  H    0.001655   0.024747   0.000034   0.000033  -0.000131   0.000037
    23  H    0.003863  -0.003088  -0.000298  -0.000007  -0.000007   0.000008
    24  H    0.002201  -0.001241   0.000042  -0.000000   0.000003  -0.000000
    25  H   -0.017823   0.000753  -0.000562  -0.000002   0.000002   0.000000
    26  H   -0.021106   0.347081  -0.000347  -0.000165   0.007272   0.000008
              19         20         21         22         23         24
     1  O   -0.000002  -0.000000   0.000000  -0.000009   0.002969  -0.000225
     2  C   -0.000849  -0.000106   0.000006   0.000048   0.000818   0.006206
     3  C    0.006277   0.000746  -0.000076   0.000351   0.000122  -0.001546
     4  C   -0.013456  -0.013976   0.001361   0.005869   0.001063   0.001364
     5  C   -0.008025   0.003507   0.009063  -0.000301   0.000091   0.000001
     6  C    0.361114  -0.020436   0.007960   0.000429   0.000049  -0.000025
     7  C   -0.043928   0.333046   0.306109  -0.002971   0.003231  -0.000411
     8  C   -0.003289   0.001871   0.001086   0.022212  -0.016242   0.005953
     9  O    0.008687   0.003814   0.004076   0.002005   0.027181   0.000372
    10  C    0.003297  -0.003681   0.019168   0.244021  -0.003618   0.014676
    11  C   -0.000043   0.000717  -0.000804   0.020989   0.319938   0.307108
    12  C    0.000120  -0.000026   0.000013  -0.002635  -0.004994   0.017371
    13  O    0.000001   0.000085   0.000002   0.001655   0.003863   0.002201
    14  C   -0.001297   0.005826  -0.001975   0.024747  -0.003088  -0.001241
    15  H    0.000970  -0.000007  -0.000008   0.000034  -0.000298   0.000042
    16  H   -0.011084   0.000019  -0.000479   0.000033  -0.000007  -0.000000
    17  H    0.008415   0.004238   0.000143  -0.000131  -0.000007   0.000003
    18  H   -0.025762  -0.005576  -0.011888   0.000037   0.000008  -0.000000
    19  H    0.693521   0.009958  -0.002896  -0.000071  -0.000200   0.000006
    20  H    0.009958   0.687856  -0.022753   0.001536  -0.000177  -0.000007
    21  H   -0.002896  -0.022753   0.669827  -0.001049  -0.000086   0.000021
    22  H   -0.000071   0.001536  -0.001049   0.660966   0.005055  -0.015855
    23  H   -0.000200  -0.000177  -0.000086   0.005055   0.671947  -0.022268
    24  H    0.000006  -0.000007   0.000021  -0.015855  -0.022268   0.682388
    25  H    0.000000   0.000002  -0.000000  -0.000050   0.004867  -0.017386
    26  H    0.000057  -0.000793   0.000022  -0.013904  -0.000517  -0.000184
              25         26
     1  O    0.008724   0.000015
     2  C   -0.019459   0.001005
     3  C    0.013243   0.008376
     4  C    0.000409  -0.028437
     5  C    0.000084  -0.008028
     6  C    0.000002  -0.001406
     7  C    0.000016   0.003892
     8  C   -0.000781  -0.008627
     9  O   -0.000025  -0.000187
    10  C    0.010868   0.003321
    11  C   -0.007991   0.009966
    12  C    0.324422   0.003358
    13  O   -0.017823  -0.021106
    14  C    0.000753   0.347081
    15  H   -0.000562  -0.000347
    16  H   -0.000002  -0.000165
    17  H    0.000002   0.007272
    18  H    0.000000   0.000008
    19  H    0.000000   0.000057
    20  H    0.000002  -0.000793
    21  H   -0.000000   0.000022
    22  H   -0.000050  -0.013904
    23  H    0.004867  -0.000517
    24  H   -0.017386  -0.000184
    25  H    0.695094  -0.000393
    26  H   -0.000393   0.687840
 Mulliken charges:
               1
     1  O   -0.235385
     2  C    0.102184
     3  C   -0.038722
     4  C   -0.144935
     5  C    0.171496
     6  C    0.002157
     7  C    0.094636
     8  C    0.017786
     9  O   -0.214541
    10  C   -0.105991
    11  C    0.188179
    12  C    0.091141
    13  O   -0.354237
    14  C    0.230007
    15  H   -0.015072
    16  H    0.016014
    17  H    0.015473
    18  H    0.027262
    19  H    0.018479
    20  H    0.014318
    21  H    0.023158
    22  H    0.046990
    23  H    0.010301
    24  H    0.021436
    25  H    0.005986
    26  H    0.011882
 Sum of Mulliken charges =  -0.00000
 Mulliken charges with hydrogens summed into heavy atoms:
               1
     1  O   -0.235385
     2  C    0.102184
     3  C   -0.053794
     4  C   -0.144935
     5  C    0.202982
     6  C    0.047898
     7  C    0.132111
     8  C    0.017786
     9  O   -0.214541
    10  C   -0.059001
    11  C    0.219916
    12  C    0.097127
    13  O   -0.354237
    14  C    0.241890
 APT charges:
               1
     1  O    0.695036
     2  C   -0.847605
     3  C   -0.537981
     4  C   -0.295539
     5  C   -0.485776
     6  C   -0.745871
     7  C   -0.452120
     8  C   -0.786985
     9  O    0.252485
    10  C   -0.411498
    11  C   -0.436565
    12  C   -0.483744
    13  O   -0.137374
    14  C   -0.407320
    15  H    0.410710
    16  H    0.446954
    17  H    0.379016
    18  H    0.662384
    19  H    0.155436
    20  H    0.242932
    21  H    0.588284
    22  H    0.479982
    23  H    0.160410
    24  H    0.539948
    25  H    0.586021
    26  H    0.428779
 Sum of APT charges =  -0.00000
 APT charges with hydrogens summed into heavy atoms:
               1
     1  O    0.695036
     2  C   -0.847605
     3  C   -0.127270
     4  C   -0.295539
     5  C    0.340193
     6  C    0.071950
     7  C    0.379097
     8  C   -0.786985
     9  O    0.252485
    10  C    0.068485
    11  C    0.263792
    12  C    0.102277
    13  O   -0.137374
    14  C    0.021459
 Electronic spatial extent (au):  <R**2>=           2162.7703
 Charge=             -0.0000 electrons
 Dipole moment (field-independent basis, Debye):
    X=             -5.4437    Y=             -0.1788    Z=              4.2623  Tot=              6.9162
 Quadrupole moment (field-independent basis, Debye-Ang):
   XX=            -84.3154   YY=            -78.6288   ZZ=            -89.7283
   XY=              7.8631   XZ=              0.6359   YZ=              4.5763
 Traceless Quadrupole moment (field-independent basis, Debye-Ang):
   XX=             -0.0913   YY=              5.5954   ZZ=             -5.5041
   XY=              7.8631   XZ=              0.6359   YZ=              4.5763
 Octapole moment (field-independent basis, Debye-Ang**2):
  XXX=            -39.0048  YYY=              0.0218  ZZZ=              8.9328  XYY=              0.4587
  XXY=             11.6859  XXZ=             22.4130  XZZ=            -14.7862  YZZ=             -2.7630
  YYZ=              7.7262  XYZ=             -8.5044
 Hexadecapole moment (field-independent basis, Debye-Ang**3):
 XXXX=          -1541.2352 YYYY=           -738.7096 ZZZZ=           -524.8603 XXXY=             32.9527
 XXXZ=             70.4950 YYYX=              7.0619 YYYZ=             21.7431 ZZZX=            -10.5945
 ZZZY=              5.1885 XXYY=           -373.7488 XXZZ=           -387.2687 YYZZ=           -217.6939
 XXYZ=            -12.0878 YYXZ=             -3.4914 ZZXY=             18.5305
 N-N= 9.527513863571D+02 E-N=-3.422647754615D+03  KE= 6.455434772424D+02
  Exact polarizability:   0.000   0.000   0.000   0.000   0.000   0.000
 Approx polarizability: 194.771   2.819 145.546 -34.334   2.512 176.952
 No NMR shielding tensors so no spin-rotation constants.
 Leave Link  601 at Sat Jan 24 09:47:02 2026, MaxMem=  4294967296 cpu:               1.6 elap:               0.1
 (Enter /root/g16/l701.exe)
 ... and contract with generalized density number  0.
 Compute integral second derivatives.
 R6Disp: Adding Grimme-D3(BJ) dispersion energy 2nd derivatives to the Hessian.
   1 Symmetry operations used in ECPInt.
 ECPInt:  NShTT=    7260 NPrTT=   26324 LenC2=    7150 LenP2D=   19951.
 LDataN:  DoStor=T MaxTD1= 6 Len=  172
 D2PCM: PCM CHGder 2nd derivatives, FixD1E=F FixD2E=F DoIter=F DoCFld=F I1PDM=0
 GePol: Maximum number of non-zero 2nd derivatives   =     226
 Leave Link  701 at Sat Jan 24 09:47:04 2026, MaxMem=  4294967296 cpu:              36.4 elap:               2.2
 (Enter /root/g16/l702.exe)
 L702 exits ... SP integral derivatives will be done elsewhere.
 Leave Link  702 at Sat Jan 24 09:47:04 2026, MaxMem=  4294967296 cpu:               0.1 elap:               0.0
 (Enter /root/g16/l703.exe)
 Integral derivatives from FoFJK, PRISM(SPDF).
 Compute integral second derivatives, UseDBF=F ICtDFT=           0.
 Calling FoFJK, ICntrl=    100147 FMM=F ISym2X=0 I1Cent= 0 IOpClX= 0 NMat=1 NMatS=1 NMatT=0.
 FoFJK:  IHMeth= 1 ICntrl=  100147 DoSepK=F KAlg= 0 I1Cent=           0 FoldK=F
 IRaf=         0 NMat=       1 IRICut=       1 DoRegI=T DoRafI=F ISym2E= 0 IDoP0=0 IntGTp=1.
 FoFCou: FMM=F IPFlag=           0 FMFlag=      100000 FMFlg1=         800
         NFxFlg=           0 DoJE=F BraDBF=F KetDBF=F FulRan=T
         wScrn=  0.000000 ICntrl=    100147 IOpCl=  0 I1Cent=           0 NGrid=           0
         NMat0=    1 NMatS0=      1 NMatT0=    0 NMatD0=    1 NMtDS0=    0 NMtDT0=    0
 Symmetry not used in FoFCou.
 Leave Link  703 at Sat Jan 24 09:47:37 2026, MaxMem=  4294967296 cpu:             519.0 elap:              32.5
 (Enter /root/g16/l716.exe)
 Dipole        =-2.14173408D+00-7.03273732D-02 1.67693011D+00
 Polarizability= 0.00000000D+00 0.00000000D+00 0.00000000D+00
                 0.00000000D+00 0.00000000D+00 0.00000000D+00
 ***** Axes restored to original set *****
 -------------------------------------------------------------------
 Center     Atomic                   Forces (Hartrees/Bohr)
 Number     Number              X              Y              Z
 -------------------------------------------------------------------
      1        8           0.005394687   -0.000178693    0.005656428
      2        6           0.001399876   -0.001195366   -0.007383136
      3        6           0.004722616    0.002372439    0.003247351
      4        6          -0.002341088    0.007743449   -0.010519311
      5        6          -0.000020666   -0.004162725    0.007409673
      6        6           0.001406395   -0.000342371   -0.008288417
      7        6          -0.000060880    0.002443901    0.010684848
      8        6          -0.002433532   -0.004392704   -0.013749785
      9        8          -0.000367191   -0.002826811    0.010420906
     10        6           0.004122614   -0.001356677    0.005097849
     11        6           0.001248780    0.004582667   -0.001603491
     12        6           0.002299744   -0.005695670    0.004308903
     13        8           0.001628281    0.001241858   -0.003430053
     14        6          -0.001185778   -0.001426672   -0.001324268
     15        1          -0.001632120    0.006197863    0.007133321
     16        1           0.000537012    0.006305228    0.001870909
     17        1          -0.001894030    0.001926317   -0.005962720
     18        1          -0.006241586    0.002897280    0.000637803
     19        1           0.000101079    0.000301660    0.006321656
     20        1          -0.001706922   -0.000902116   -0.007227531
     21        1          -0.004356998   -0.003971076    0.000905066
     22        1          -0.002948821   -0.002680896   -0.004230675
     23        1          -0.000529060   -0.002840267    0.004636477
     24        1           0.001984051   -0.005269538   -0.002819389
     25        1           0.004961633   -0.000284271    0.000812342
     26        1          -0.004088095    0.001513190   -0.002604754
 -------------------------------------------------------------------
 Cartesian Forces:  Max     0.013749785 RMS     0.004511118
 FormGI is forming the generalized inverse of G from B-inverse, IUseBI=4.
 Leave Link  716 at Sat Jan 24 09:47:37 2026, MaxMem=  4294967296 cpu:               0.3 elap:               0.0
 (Enter /root/g16/l103.exe)

 GradGradGradGradGradGradGradGradGradGradGradGradGradGradGradGradGradGrad
 Berny optimization.
 Red2BG is reusing G-inverse.
 Internal  Forces:  Max     0.013124806 RMS     0.003014692
 Search for a local minimum.
 Step number   1 out of a maximum of  156
 All quantities printed in internal units (Hartrees-Bohrs-Radians)
[...]
 01,-0.05983566,0.00426622,-0.05365974,-0.00041930,0.00071723,-0.000984
 51,-0.00020156,0.00060150,0.00111221,0.00005381,-0.00032328,0.00029519
 ,-0.00004845,-0.00002457,0.00010546,0.00001620,0.00005939,-0.00004429,
 0.00001089,-0.00002345,0.00001984,0.00001910,0.00002217,-0.00001645,0.
 00015130,0.00021324,0.00003951,-0.00001742,-0.00009266,-0.00001474,0.0
 0106527,0.00065713,-0.00051630,-0.00268232,-0.00244909,0.00233840,-0.0
 0422147,0.00059532,-0.02653819,0.06090322,-0.00014837,0.00006562,-0.00
 009974,0.00016146,-0.00021821,0.00002497,-0.00037381,0.00016146,-0.000
 12145,0.00140404,-0.00048425,-0.00007631,0.00193194,-0.00336422,0.0186
 8819,0.00460674,-0.04608282,0.01634309,-0.00469305,-0.00203007,-0.0304
 3161,-0.00074150,0.00170181,-0.00351472,-0.00041136,0.00047178,0.00133
 025,-0.00009535,-0.00039911,-0.00013483,0.00001869,0.00003683,0.000028
 33,0.00005737,0.00000924,-0.00000109,-0.00007389,0.00001713,0.00003886
 ,-0.00004491,-0.00000299,-0.00005892,0.00000305,-0.00002421,-0.0000196
 2,0.00052513,0.00065937,0.00017811,-0.00341371,-0.00127842,0.00202771,
 0.00190921,-0.00069465,0.01309557,-0.00069653,0.05616291,0.00016254,-0
 .00004316,0.00011728,-0.00017319,0.00020084,-0.00007604,0.00065157,-0.
 00027458,0.00029458,-0.00159991,0.00019021,0.00017661,-0.00132588,0.00
 183610,-0.01250245,-0.05099539,0.01520066,-0.29952799,-0.00113872,-0.0
 0203175,-0.01108636,-0.00146901,0.00178807,-0.00152078,0.00034908,-0.0
 0040740,0.00157428,0.00008420,0.00002960,0.00006221,0.00004951,-0.0000
 0040,-0.00008974,-0.00004924,-0.00000087,0.00001704,0.00010803,-0.0000
 1628,0.00000193,-0.00020188,-0.00004997,0.00013514,0.00001445,0.000007
 41,-0.00000084,0.00000626,-0.00006775,0.00112771,0.00210433,0.00137250
 ,-0.00003752,-0.00038313,0.00015142,-0.00192271,0.05421389,-0.01555907
 ,0.32216352,0.00013399,-0.00000390,0.00010038,-0.00016144,0.00004799,-
 0.00005212,0.00015508,-0.00000920,0.00011423,-0.00029537,-0.00013918,-
 0.00017131,0.00026137,0.00041890,-0.00070181,-0.00023503,-0.00112947,-
 0.00108066,-0.05650327,0.00024976,-0.02418643,0.00225464,-0.00427711,-
 0.02703858,-0.00421864,0.00618728,-0.00218022,0.00015659,0.00070302,0.
 00103416,0.00040865,-0.00000866,-0.00008313,0.00004124,0.00008134,-0.0
 0007509,0.00026837,-0.00011047,0.00016732,-0.00114845,-0.00015492,-0.0
 0048343,0.00001579,0.00001461,0.00001572,0.00007519,0.00009769,0.00012
 448,-0.00000324,-0.00005875,0.00001737,0.00006164,-0.00028169,0.000324
 06,0.00103108,0.00006985,-0.00035811,0.05465128,0.00005749,-0.00002280
 ,0.00004309,-0.00008126,0.00006338,-0.00002191,0.00012673,-0.00001049,
 -0.00006884,-0.00017131,-0.00019887,0.00007632,0.00003740,0.00214090,-
 0.00021979,-0.00455120,-0.00037762,-0.03270248,0.00110696,-0.04283118,
 0.01015696,-0.00211378,-0.00089511,0.01837220,0.00538125,-0.00330444,0
 .00149422,-0.00051120,-0.00014992,-0.00080722,-0.00011738,-0.00004226,
 0.00004152,-0.00006912,-0.00000023,-0.00007257,0.00012818,0.00000231,0
 .00003556,-0.00035435,0.00015055,-0.00003741,0.00000480,-0.00000028,0.
 00001904,0.00049643,0.00021760,0.00013167,0.00006858,-0.00046109,0.000
 74073,0.00024405,0.00116465,0.00063245,-0.00031348,-0.00576164,-0.0021
 8147,-0.00230846,0.05080394,-0.00007705,0.00003742,-0.00001456,0.00017
 120,-0.00010155,-0.00003596,-0.00009343,0.00011220,0.00001043,-0.00005
 102,-0.00038170,-0.00014124,0.00023601,0.00092192,0.00112369,-0.001377
 45,-0.00020532,-0.01095143,-0.02811917,0.00996310,-0.30729793,0.003325
 37,-0.00070140,-0.00579743,-0.00310747,0.00112373,-0.00051036,0.000330
 21,0.00014897,0.00016313,-0.00011237,0.00014552,0.00002255,0.00015667,
 0.00003888,-0.00004134,0.00015965,-0.00008454,0.00032105,0.00021656,0.
 00003661,-0.00056169,-0.00000134,-0.00000945,0.00002552,0.00016138,-0.
 00000771,0.00017395,-0.00053875,-0.00025453,0.00024464,0.00021831,-0.0
 0007720,0.00047185,0.00013710,-0.00226152,0.00036207,0.02989694,-0.008
 18223,0.33115643,-0.00010413,-0.00001604,-0.00012824,0.00011186,0.0000
 3384,0.00018811,-0.00002022,-0.00002868,-0.00004394,0.00021313,0.00033
 563,0.00009396,0.00126204,0.00028586,-0.00047160,-0.00010538,0.0005624
 0,-0.00039179,-0.21923665,-0.09826722,0.08571296,-0.02410916,-0.012433
 47,0.01297474,0.00483459,0.00012950,0.00060012,-0.00218547,0.00306772,
 -0.00228036,-0.00048585,0.00027635,0.00090064,-0.00009294,0.00019463,-
 0.00010886,-0.00003759,-0.00008701,0.00006138,0.00073369,0.00032148,-0
 .00061378,0.00001334,0.00000233,-0.00003577,0.00002687,-0.00002491,0.0
 0021112,-0.00008559,-0.00008964,0.00011984,0.00100304,0.00015613,-0.00
 029341,-0.00002362,-0.00010992,-0.00003470,0.00443849,0.00292938,-0.00
 201289,0.23442840,-0.00021380,0.00008306,-0.00007647,0.00037123,-0.000
 27810,-0.00008813,-0.00046575,0.00034663,-0.00003041,0.00115814,-0.000
 29127,-0.00011396,0.00020912,-0.00473642,-0.00381451,-0.02358633,-0.01
 554896,0.01256228,-0.09882913,-0.09535133,0.05122908,0.01785882,0.0062
 9953,-0.00642849,-0.00158857,0.00065449,-0.00190486,0.00187297,-0.0016
 6709,0.00112340,0.00052361,-0.00021919,-0.00050640,0.00008000,-0.00014
 079,0.00008682,-0.00008580,0.00013948,0.00005043,-0.00014492,-0.000203
 10,0.00005660,0.00000441,-0.00001009,0.00003166,-0.00124743,-0.0010849
 0,0.00066597,0.00026496,0.00032110,-0.00003484,0.00007011,0.00120574,0
 .00073050,0.00003207,0.00105866,-0.00016884,0.00061038,-0.00040481,-0.
 00021320,0.10285977,0.10975792,-0.00001318,0.00002261,0.00001079,0.000
 05095,-0.00007110,-0.00003298,-0.00009470,0.00008228,-0.00001150,0.000
 25028,-0.00020013,-0.00019748,-0.00016749,-0.00187298,-0.00021132,-0.0
 1060462,-0.00673711,0.00468742,0.08851411,0.05251500,-0.09402795,-0.00
 592034,-0.00510113,0.00250402,-0.00035908,0.00045224,0.00018650,0.0001
 6791,0.00094709,0.00068768,-0.00017582,0.00007251,-0.00002885,0.000068
 20,0.00005568,-0.00006055,0.00014567,-0.00002925,0.00022060,-0.0002895
 8,-0.00003362,-0.00046854,0.00001165,0.00000430,0.00001059,-0.00015736
 ,-0.00041089,0.00030224,-0.00007149,-0.00025843,0.00017349,0.00003056,
 0.00054690,0.00051056,-0.00027506,0.00046449,0.00057467,0.02384889,0.0
 1269019,-0.00930547,-0.09460131,-0.05307151,0.09403170,-0.00020444,-0.
 00022416,-0.00043973,-0.00013454,0.00081105,0.00068977,0.00029801,0.00
 012138,-0.00009428,0.00029108,-0.00043503,0.00045896,0.00003115,-0.000
 14919,-0.00009592,0.00075771,-0.00089213,0.00015238,-0.00142508,-0.001
 60940,-0.00148048,0.00942442,0.01585779,0.01696887,-0.00279728,-0.0033
 0622,0.00114868,-0.06113812,-0.03823018,-0.04572979,-0.00902512,-0.012
 96212,-0.01904843,-0.00206462,0.00102681,-0.00231067,0.00113868,0.0001
 1022,0.00085803,-0.00065016,-0.00252907,-0.00492404,-0.00001720,-0.000
 09099,0.00004599,0.00006883,-0.00001123,-0.00002942,0.00001734,-0.0000
 1118,-0.00001460,0.00000259,-0.00012160,-0.00006573,-0.00001123,0.0000
 9723,0.00000347,-0.00093001,0.00054621,0.00001138,-0.00024757,0.000019
 99,-0.00038500,0.06828860,-0.00086301,0.00031817,-0.00036334,0.0014678
 3,-0.00128799,0.00015406,-0.00086545,0.00001860,-0.00036280,-0.0019872
 9,-0.00287875,0.00366568,-0.00018292,0.00009584,-0.00023173,0.00004167
 ,-0.00010777,0.00010867,0.00006792,0.00017979,-0.00060324,0.00096344,0
 .00136134,0.00005968,-0.00060148,-0.00161878,0.00048576,-0.04388627,-0
 .13534007,-0.12355342,0.00592121,0.00638475,0.00883770,0.00016098,-0.0
 0089417,0.00081708,0.00095729,0.00238363,0.00015609,-0.00579151,-0.023
 86587,-0.01946780,0.00013332,0.00037672,-0.00045409,0.00013155,-0.0000
 3326,-0.00008203,0.00003212,0.00000746,0.00002097,0.00002607,0.0000682
 6,-0.00004535,0.00003836,0.00005378,0.00001620,0.00031594,-0.00017861,
 0.00018506,0.00006178,0.00000720,0.00011116,0.04248728,0.15239198,0.00
 025455,-0.00017813,0.00007597,-0.00033887,0.00073091,-0.00000511,0.000
 52648,-0.00005802,0.00064260,0.00109638,0.00142457,-0.00112770,-0.0000
 5473,-0.00017903,0.00002567,-0.00080035,0.00014711,0.00004777,0.001248
 45,0.00221676,0.00077997,-0.00590005,-0.01372419,-0.01935502,0.0034086
 4,0.00224849,0.00049306,-0.05297292,-0.12938880,-0.19429894,-0.0030799
 0,-0.00506441,-0.00633529,0.00000769,0.00088175,-0.00067002,-0.0011670
 8,-0.00091038,0.00021929,0.00358745,0.01271979,0.00973261,-0.00004284,
 -0.00018433,0.00020867,0.00000411,-0.00000067,0.00002834,-0.00000363,-
 0.00001414,-0.00003663,0.00000264,0.00012017,0.00011683,-0.00002384,0.
 00005728,0.00003383,0.00034314,-0.00021958,0.00037465,0.00018978,-0.00
 006961,0.00007723,0.05460990,0.12939458,0.20704735,-0.00025725,0.00050
 315,-0.00028834,0.00175134,-0.00037671,0.00064654,-0.00049941,0.000101
 82,-0.00011894,0.00028766,0.00003945,0.00007038,0.00000527,-0.00003068
 ,-0.00006162,0.00023580,0.00010775,0.00015564,0.00026427,-0.00051680,0
 .00004103,0.00004691,0.00091651,-0.00233318,0.00005741,-0.00037051,0.0
 0175861,0.00237978,0.00344699,-0.02622843,-0.04521856,-0.00247532,0.01
 901037,-0.00006978,0.00044528,0.01706313,-0.00089664,-0.00349471,0.001
 80284,-0.00303961,0.00046515,-0.00144092,0.00001381,-0.00008408,0.0000
 7479,-0.00002716,-0.00000945,0.00001511,-0.00000501,-0.00000122,-0.000
 00867,-0.00002442,-0.00012056,-0.00001446,-0.00002493,0.00004577,-0.00
 000721,0.00015594,-0.00013107,0.00012400,0.00001778,-0.00000689,-0.000
 01311,-0.00292776,0.00124129,-0.00117833,0.04867112,-0.00004437,0.0002
 8611,-0.00038889,0.00039767,-0.00034576,0.00159164,-0.00044211,-0.0002
 5817,-0.00008705,0.00030914,0.00032898,0.00024272,-0.00008572,-0.00009
 251,-0.00007603,-0.00006313,0.00005703,-0.00004865,0.00002250,0.000103
 84,0.00029880,0.00004434,0.00055385,0.00142911,-0.00061880,-0.00054566
 ,-0.00075585,-0.00041398,-0.00145694,0.00575232,-0.00230776,-0.0520962
 9,0.03295468,0.00184798,-0.00073872,0.01990326,0.00015717,-0.00608006,
 0.00443045,-0.00151377,-0.00083230,0.00137803,-0.00001630,0.00004306,-
 0.00001246,0.00002015,-0.00000398,-0.00001537,-0.00004436,0.00003908,-
 0.00000383,-0.00002194,0.00001324,0.00000848,0.00000645,-0.00000468,0.
 00000186,0.00002891,-0.00003263,-0.00002343,-0.00003293,0.00002099,-0.
 00003079,-0.00019544,-0.00007754,0.00017930,0.00217450,0.05639631,0.00
 049086,-0.00020859,0.00077609,-0.00085827,-0.00048674,-0.00082614,0.00
 024580,-0.00001817,0.00035611,-0.00015763,-0.00020279,-0.00031806,0.00
 003166,0.00001208,0.00004438,-0.00005771,-0.00004648,-0.00003611,-0.00
 000630,0.00007447,0.00000864,0.00219240,0.00149981,-0.00279407,0.00271
 910,-0.00162785,0.00121377,-0.00281093,0.00066111,-0.00723737,0.017074
 60,0.03673018,-0.31617714,-0.00030896,0.00038072,-0.00077925,-0.000256
 51,0.00030840,0.00053296,0.00033808,-0.00023768,-0.00076106,0.00000107
 ,0.00004620,-0.00000169,-0.00000442,0.00000877,0.00000935,0.00001455,-
 0.00002388,-0.00000063,0.00001936,0.00003729,0.00001246,0.00000556,0.0
 0000713,0.00001457,-0.00002621,0.00001421,0.00004448,-0.00002031,-0.00
 003086,0.00006057,-0.00085194,0.00091678,-0.00045550,-0.01837156,-0.04
 085435,0.33726025,-0.00037852,-0.00011957,-0.00155650,-0.00200095,-0.0
 0110492,0.00406369,0.00111707,-0.00009127,-0.00033041,-0.00028700,-0.0
 0068831,-0.00084457,0.00006416,-0.00008230,0.00008040,-0.00004601,-0.0
 0028733,-0.00003310,-0.00084366,-0.00042844,0.00070122,-0.00170421,0.0
 0213876,-0.00270026,0.00012468,-0.00016331,0.00040215,-0.01093211,0.02
 253960,0.01031113,-0.07220887,0.07969181,0.04186640,0.00314615,-0.0228
 5106,-0.01090460,0.00138729,0.00113162,0.00069806,-0.00360568,0.000096
 34,-0.00011442,0.00021102,-0.00005663,-0.00006867,0.00001956,0.0000080
 7,0.00000980,0.00005084,-0.00004799,0.00003485,0.00003889,0.00008178,-
 0.00000861,-0.00000316,0.00000323,0.00001480,0.00007226,-0.00001666,-0
 .00002375,-0.00031771,0.00019689,0.00000003,0.00112724,-0.00023831,0.0
 0056252,-0.00052433,0.00140444,0.00048250,0.08427206,-0.00039582,-0.00
 036485,-0.00171620,-0.00249904,-0.00000851,0.00426467,0.00061156,0.000
 21334,-0.00032705,-0.00019195,0.00021521,0.00006905,0.00003450,-0.0000
 6309,0.00012137,-0.00004628,-0.00004144,0.00006077,0.00006639,0.000041
 72,-0.00019175,-0.00034668,-0.00036316,0.00089979,0.00007408,0.0000031
 8,-0.00031735,0.00061389,-0.00224128,-0.00208082,0.08028922,-0.2397828
 3,-0.10070702,0.00481108,-0.02127743,-0.01175533,0.00069068,0.00132592
 ,0.00120159,0.00024899,-0.00049555,0.00030951,0.00012164,-0.00006244,-
 0.00007370,0.00002202,-0.00002986,-0.00000550,0.00005707,-0.00003309,-
 0.00001423,0.00002306,-0.00000361,-0.00000879,-0.00000282,0.00001377,-
 0.00001598,-0.00002592,-0.00000430,-0.00000657,0.00001516,-0.00002039,
 -0.00000879,-0.00045084,0.00106519,0.00019592,-0.00204402,0.00554009,0
 .00234360,-0.08196437,0.25499522,0.00037745,-0.00024588,0.00060548,-0.
 00015415,0.00117672,-0.00081090,0.00020839,-0.00039253,0.00043763,-0.0
 0017330,-0.00030336,-0.00070255,-0.00002141,-0.00000688,-0.00005465,0.
 00007256,-0.00006458,0.00002535,-0.00029654,-0.00031206,0.00011531,-0.
 00051844,0.00120175,-0.00147222,0.00070949,-0.00004133,0.00085086,-0.0
 0667184,0.01188055,0.00452666,0.04256520,-0.10365146,-0.09967593,-0.00
 276729,0.00838486,0.00360438,0.00087135,-0.00089408,0.00023331,-0.0018
 0140,0.00116895,-0.00043156,0.00002305,0.00003994,-0.00003001,0.000010
 35,-0.00000077,0.00000479,-0.00000748,-0.00000721,0.00002382,0.0000146
 7,-0.00001076,-0.00001245,-0.00001418,0.00000270,0.00001993,0.00001701
 ,-0.00000046,0.00000092,-0.00008637,0.00003177,0.00001754,-0.00018725,
 0.00064223,0.00113846,0.00968564,-0.02614787,-0.01082892,-0.04164135,0
 .10749824,0.10214422,0.00180149,-0.00044416,0.00074762,-0.00036424,-0.
 00096704,-0.00185305,0.00041660,-0.00029078,-0.00012038,-0.00005605,-0
 .00018628,-0.00008740,-0.00004160,-0.00004655,0.00020461,-0.00004503,0
 .00004063,-0.00008004,-0.00010764,0.00003976,0.00012912,0.00018813,-0.
 00010629,-0.00065188,-0.00025616,-0.00002777,0.00030559,-0.00077343,-0
 .00078481,0.00070364,-0.00977890,0.00347047,0.00326440,-0.29013789,0.0
 7238887,0.05814520,-0.01215490,0.00353866,-0.00285781,0.00166188,0.001
 07925,-0.00191506,0.00006222,-0.00003727,0.00006351,-0.00003072,0.0000
 4610,0.00003190,0.00001330,-0.00001675,-0.00000501,-0.00003487,0.00001
 752,0.00002544,0.00000784,-0.00000780,0.00001336,0.00003098,0.00000030
 ,0.00002399,-0.00005096,0.00002403,0.00001876,-0.00021697,0.00001562,-
 0.00009671,-0.00080806,-0.00064144,0.00002793,0.00097972,0.00033422,-0
 .00033479,0.31023429,-0.00202180,0.00167699,0.00319013,0.02343073,-0.0
 0733611,-0.00728270,-0.00101420,-0.00236536,-0.00278507,-0.00032146,0.
 00043341,-0.00026599,0.00002720,0.00005425,-0.00000835,-0.00009590,-0.
 00009815,0.00002497,-0.00017507,0.00006514,0.00027084,-0.00031005,0.00
 020226,-0.00081516,-0.00020589,-0.00002249,0.00008835,-0.00284828,-0.0
 0239156,0.00153046,-0.02213422,0.00677866,0.00373691,0.06994312,-0.065
 87072,-0.01751911,0.01396276,-0.00368587,0.00082460,-0.00118559,-0.001
 42335,0.00222839,0.00058914,-0.00084377,0.00027412,0.00000218,-0.00000
 810,-0.00002453,0.00002308,0.00000397,0.00002652,0.00003297,0.00006413
 ,0.00000083,0.00000320,0.00000530,-0.00000170,0.00000685,-0.00001517,0
 .00000564,-0.00008548,0.00006448,-0.00000015,-0.00042457,0.00008915,-0
 .00018282,-0.00048149,-0.00051357,0.00039789,0.00035303,0.00162658,-0.
 00017099,-0.07763936,0.07335256,-0.00151546,0.00172055,0.00213275,0.02
 273444,-0.00645745,-0.00263413,-0.00088946,-0.00306144,-0.00262012,-0.
 00097304,-0.00003614,-0.00049355,0.00015061,0.00030016,0.00011882,0.00
 007264,-0.00010346,0.00001971,-0.00000308,-0.00001788,-0.00012389,0.00
 015119,-0.00024000,0.00016341,0.00000504,0.00003108,0.00007477,0.00001
 786,0.00142737,-0.00086099,0.00641776,-0.00312968,0.00115748,0.0672372
 0,-0.01967289,-0.06465482,-0.03453058,0.00998758,0.00355157,-0.0015811
 5,0.00289673,-0.00487210,0.00076832,-0.00079166,0.00030961,-0.00007014
 ,0.00005177,0.00005526,0.00007699,-0.00005276,0.00003844,0.00002825,0.
 00000414,-0.00002162,-0.00001207,0.00000171,0.00000514,0.00000961,0.00
 000765,0.00004035,0.00002748,-0.00000766,0.00003027,0.00024348,0.00003
 829,0.00004494,-0.00019528,0.00020256,-0.00005184,-0.00082839,0.000126
 84,0.00040316,-0.05588429,0.01671213,0.06777034,-0.00012534,-0.0006150
 1,-0.00059784,-0.00040956,0.00122622,0.00071562,0.00086769,0.00126680,
 0.00074525,0.00361463,-0.00135647,0.00180547,0.00024039,0.00005898,0.0
 0130498,0.00005448,0.00009796,0.00012259,-0.00039170,-0.00018010,0.000
 06994,0.00029402,-0.00019632,-0.00005089,-0.00013924,0.00016737,-0.000
 08127,0.00672272,-0.00201961,0.00685587,-0.00102487,-0.00168198,0.0009
 7820,-0.00485691,-0.00187061,0.00313151,-0.02739597,0.01090431,-0.0270
 8220,-0.11376505,0.02503149,-0.10983275,0.00039054,0.00009100,-0.00000
 401,-0.00011082,-0.00008529,0.00003711,0.00006724,0.00038594,0.0000542
 4,0.00000579,0.00001662,0.00000126,-0.00005583,-0.00002353,-0.00003911
 ,-0.00071715,-0.00038852,0.00034594,0.00001962,0.00001215,0.00002113,0
 .00034448,0.00035257,-0.00018249,0.00043584,0.00002880,0.00008729,0.00
 024124,-0.00004580,0.00012065,-0.00053904,0.00056908,-0.00145793,0.136
 23282,-0.00028240,0.00021925,0.00018093,0.00115666,-0.00013883,-0.0002
 4178,0.00145501,-0.00288808,-0.00191629,-0.01131310,0.00366238,-0.0223
 1816,-0.00103049,0.00104903,-0.00041449,-0.00005756,-0.00006488,0.0000
 4424,0.00005631,0.00024415,0.00033202,0.00141382,-0.00135791,-0.000333
 69,-0.00074090,0.00013457,0.00094581,0.01207646,-0.00520985,0.02008171
 ,-0.00015236,-0.00263491,0.00199589,0.00022686,-0.00050194,0.00076893,
 0.00094537,0.00018956,0.00091273,0.02717891,-0.05624479,0.04322565,-0.
 00123950,-0.00073822,-0.00002871,-0.00010161,0.00001990,0.00028592,0.0
 0059035,-0.00029591,0.00031665,0.00003926,0.00003408,-0.00001087,-0.00
 001059,-0.00007239,0.00002434,-0.00032479,0.00014811,-0.00020871,-0.00
 005668,-0.00000284,-0.00013857,0.00056540,0.00148093,-0.00014253,0.000
 65584,-0.00030376,0.00029876,0.00049493,-0.00024839,0.00022250,0.00020
 085,0.00015732,0.00006246,-0.03174606,0.06336342,-0.00064568,0.0002940
 8,-0.00030300,0.00168069,-0.00048584,0.00020550,0.00138703,-0.00227130
 ,-0.00176859,-0.01077916,0.00330386,-0.01729822,-0.00114290,0.00102537
 ,0.00041828,0.00025116,-0.00006768,0.00007296,-0.00036146,-0.00032369,
 -0.00045256,-0.00082977,0.00096091,0.00027551,0.00033337,-0.00022245,-
 0.00031265,-0.00433067,0.00090328,-0.00549600,0.00079309,0.00070068,-0
 .00000858,0.00271209,-0.00053780,0.00065691,0.00647506,-0.00234614,0.0
 1272053,-0.11887341,0.04475154,-0.24779073,-0.00103463,-0.00062544,0.0
 0002068,0.00002008,-0.00007729,0.00043849,0.00075952,-0.00061701,0.000
 50577,0.00001947,0.00003207,-0.00001187,-0.00011909,-0.00000951,0.0000
 8390,0.00042378,0.00005815,0.00012168,0.00004320,-0.00000876,0.0002587
 8,0.00046637,-0.00044619,0.00119698,-0.00018802,0.00007138,-0.00006585
 ,-0.00017294,0.00013774,-0.00013262,0.00018135,-0.00025522,0.00041702,
 0.12293145,-0.04394472,0.25624766\\-0.00000074,-0.00000144,0.00000184,
 -0.00000103,-0.00000017,0.00000170,0.00000042,-0.00000118,0.00000151,0
 .00000170,0.00000143,-0.00000232,0.00000037,0.00000107,0.00000550,-0.0
 0000412,0.00000053,-0.00000124,0.00000048,-0.00000124,0.00000098,-0.00
 000150,-0.00000169,-0.00000362,0.00000023,-0.00000244,-0.00000345,0.00
 000152,-0.00000066,-0.00000025,0.00000009,-0.00000131,-0.00000194,0.00
 000047,0.00000094,0.00000134,0.00000089,0.00000230,0.00000124,0.000000
 17,0.00000298,-0.00000102,-0.00000089,-0.00000232,0.00000300,-0.000000
 46,-0.00000084,0.00000325,-0.00000030,0.00000106,0.00000259,-0.0000002
 8,-0.00000141,0.00000057,-0.00000057,-0.00000240,-0.00000017,0.0000009
 0,0.00000074,-0.00000081,0.00000001,-0.00000133,-0.00000252,0.00000097
 ,0.00000184,-0.00000225,-0.00000007,0.00000012,-0.00000188,0.00000060,
 0.00000118,-0.00000284,0.00000026,0.00000160,0.00000015,0.00000088,0.0
 0000264,0.00000063\\\@


 SIGN SEEN IN A RESTAURANT-
 WE RESERVE THE RIGHT TO SERVE REFUSE TO ANYONE.
 Job cpu time:       0 days  0 hours 26 minutes 28.2 seconds.
 Elapsed time:       0 days  0 hours  1 minutes 39.8 seconds.
 File lengths (MBytes):  RWF=    259 Int=      0 D2E=      0 Chk=     19 Scr=      1
 Normal termination of Gaussian 16 at Sat Jan 24 09:50:37 2026.
