 Entering Gaussian System, Link 0=g16
 Initial command:
 /root/g16/l1.exe "/root/g16/scratch/gau_root_557207/Gau-557214.inp" -scrdir="/root/g16/scratch/gau_root_557207/"
 Entering Link 1 = /root/g16/l1.exe PID=    557216.
  
 Copyright (c) 1988,1990,1992,1993,1995,1998,2003,2009,2016,
            Gaussian, Inc.  All Rights Reserved.
  
 This is part of the Gaussian(R) 16 program.  It is based on
 the Gaussian(R) 09 system (copyright 2009, Gaussian, Inc.),
 the Gaussian(R) 03 system (copyright 2003, Gaussian, Inc.),
 the Gaussian(R) 98 system (copyright 1998, Gaussian, Inc.),
 the Gaussian(R) 94 system (copyright 1995, Gaussian, Inc.),
 the Gaussian 92(TM) system (copyright 1992, Gaussian, Inc.),
 the Gaussian 90(TM) system (copyright 1990, Gaussian, Inc.),
 the Gaussian 88(TM) system (copyright 1988, Gaussian, Inc.),
 the Gaussian 86(TM) system (copyright 1986, Carnegie Mellon
 University), and the Gaussian 82(TM) system (copyright 1983,
 Carnegie Mellon University). Gaussian is a federally registered
 trademark of Gaussian, Inc.
  
 This software contains proprietary and confidential information,
 including trade secrets, belonging to Gaussian, Inc.
  
 This software is provided under written license and may be
 used, copied, transmitted, or stored only in accord with that
 written license.
  
 The following legend is applicable only to US Government
 contracts under FAR:
  
                    RESTRICTED RIGHTS LEGEND
  
 Use, reproduction and disclosure by the US Government is
 subject to restrictions as set forth in subparagraphs (a)
 and (c) of the Commercial Computer Software - Restricted
 Rights clause in FAR 52.227-19.
  
 Gaussian, Inc.
 340 Quinnipiac St., Bldg. 40, Wallingford CT 06492
  
  
 ---------------------------------------------------------------
 Warning -- This program may not be used in any manner that
 competes with the business of Gaussian, Inc. or will provide
 assistance to any competitor of Gaussian, Inc.  The licensee
 of this program is prohibited from giving any competitor of
 Gaussian, Inc. access to this program.  By using this program,
 the user acknowledges that Gaussian, Inc. is engaged in the
 business of creating and licensing software in the field of
 computational chemistry and represents and warrants to the
 licensee that it is not a competitor of Gaussian, Inc. and that
 it will not use this program in any manner prohibited above.
 ---------------------------------------------------------------
  

 Cite this work as:
 Gaussian 16, Revision A.03,
 M. J. Frisch, G. W. Trucks, H. B. Schlegel, G. E. Scuseria, 
 M. A. Robb, J. R. Cheeseman, G. Scalmani, V. Barone, 
 G. A. Petersson, H. Nakatsuji, X. Li, M. Caricato, A. V. Marenich, 
 J. Bloino, B. G. Janesko, R. Gomperts, B. Mennucci, H. P. Hratchian, 
 J. V. Ortiz, A. F. Izmaylov, J. L. Sonnenberg, D. Williams-Young, 
 F. Ding, F. Lipparini, F. Egidi, J. Goings, B. Peng, A. Petrone, 
 T. Henderson, D. Ranasinghe, V. G. Zakrzewski, J. Gao, N. Rega, 
 G. Zheng, W. Liang, M. Hada, M. Ehara, K. Toyota, R. Fukuda, 
 J. Hasegawa, M. Ishida, T. Nakajima, Y. Honda, O. Kitao, H. Nakai, 
 T. Vreven, K. Throssell, J. A. Montgomery, Jr., J. E. Peralta, 
 F. Ogliaro, M. J. Bearpark, J. J. Heyd, E. N. Brothers, K. N. Kudin, 
 V. N. Staroverov, T. A. Keith, R. Kobayashi, J. Normand, 
 K. Raghavachari, A. P. Rendell, J. C. Burant, S. S. Iyengar, 
 J. Tomasi, M. Cossi, J. M. Millam, M. Klene, C. Adamo, R. Cammi, 
 J. W. Ochterski, R. L. Martin, K. Morokuma, O. Farkas, 
 J. B. Foresman, and D. J. Fox, Gaussian, Inc., Wallingford CT, 2016.
 
 ******************************************
 Gaussian 16:  ES64L-G16RevA.03 25-Dec-2016
                24-Jan-2026 
 ******************************************
 %chk=conf_003.chk
 %mem=32GB
 %nprocshared=16
 Will use up to   16 processors via shared memory.
 --------------------------------------------------------------------
 #p B3LYP/def2SVP em=GD3BJ SCRF=(PCM,Solvent=Acetone) Opt=CalcFC Freq
 --------------------------------------------------------------------
 1/10=4,18=20,19=15,26=3,38=1/1,3;
 2/9=110,12=2,17=6,18=5,40=1/2;
 3/5=43,7=101,11=2,25=1,30=1,70=2201,71=2,72=19,74=-5,124=41,140=1/1,2,3;
 4//1;
 5/5=2,38=5,53=19/2;
 8/6=4,10=90,11=11/1;
 11/6=1,8=1,9=11,15=111,16=1/1,2,10;
 10/6=1,13=1/2;
 6/7=2,8=2,9=2,10=2,28=1/1;
 7/10=1,18=20,25=1/1,2,3,16;
 1/10=4,18=20,19=15,26=3/3(2);
 2/9=110/2;
 99//99;
 2/9=110/2;
 3/5=43,7=101,11=2,25=1,30=1,70=2205,71=1,72=19,74=-5,124=41/1,2,3;
 4/5=5,16=3,69=1/1;
 5/5=2,38=5,53=19/2;
 7//1,2,3,16;
 1/18=20,19=15,26=3/3(-5);
 2/9=110/2;
 6/7=2,8=2,9=2,10=2,19=2,28=1/1;
 99/9=1/99;
 Leave Link    1 at Sat Jan 24 10:06:04 2026, MaxMem=  4294967296 cpu:               0.4 elap:               0.0
 (Enter /root/g16/l101.exe)
 ----------------
 product_conf_003
 ----------------
 Symbolic Z-matrix:
 Charge =  0 Multiplicity = 1
 O                     2.90293   0.98837   1.36228 
 C                     2.01396   0.75887   0.56568 
 C                     0.79158   1.54781   0.44308 
 C                    -0.17787   1.16566  -0.40313 
 C                    -1.57054   1.69803  -0.37475 
 C                    -2.36863   1.03963   0.77863 
 C                    -1.77706  -0.29657   1.2649 
 C                    -1.59967  -1.2718    0.12488 
 O                    -2.50634  -1.97603  -0.25511 
 C                    -0.25856  -1.31929  -0.58356 
 C                     1.01107  -1.51875   0.26148 
 C                     2.00286  -0.47381  -0.33576 
 O                     1.46252  -0.12295  -1.59241 
 C                     0.08907   0.00976  -1.3263 
 H                     0.6753    2.39058   1.10879 
 H                    -1.55915   2.77827  -0.22931 
 H                    -2.06073   1.48364  -1.32508 
 H                    -3.39347   0.87382   0.44698 
 H                    -2.3948    1.71123   1.63687 
 H                    -2.48185  -0.73617   1.97344 
 H                    -0.8328   -0.11196   1.77376 
 H                    -0.32208  -2.10862  -1.33824 
 H                     0.85322  -1.34064   1.32433 
 H                     1.40199  -2.52655   0.13964 
 H                     3.0115   -0.86277  -0.47933 
 H                    -0.4364    0.11626  -2.27647 
 
 ITRead=  0  0  0  0  0  0  0  0  0  0  0  0  0  0  0  0  0  0  0  0
 ITRead=  0  0  0  0  0  0
 MicOpt= -1 -1 -1 -1 -1 -1 -1 -1 -1 -1 -1 -1 -1 -1 -1 -1 -1 -1 -1 -1
 MicOpt= -1 -1 -1 -1 -1 -1
 NAtoms=     26 NQM=       26 NQMF=       0 NMMI=      0 NMMIF=      0
                NMic=       0 NMicF=      0.
                    Isotopes and Nuclear Properties:
 (Nuclear quadrupole moments (NQMom) in fm**2, nuclear magnetic moments (NMagM)
  in nuclear magnetons)

  Atom         1           2           3           4           5           6           7           8           9          10
 IAtWgt=          16          12          12          12          12          12          12          12          16          12
 AtmWgt=  15.9949146  12.0000000  12.0000000  12.0000000  12.0000000  12.0000000  12.0000000  12.0000000  15.9949146  12.0000000
 NucSpn=           0           0           0           0           0           0           0           0           0           0
 AtZEff=  -0.0000000  -0.0000000  -0.0000000  -0.0000000  -0.0000000  -0.0000000  -0.0000000  -0.0000000  -0.0000000  -0.0000000
 NQMom=    0.0000000   0.0000000   0.0000000   0.0000000   0.0000000   0.0000000   0.0000000   0.0000000   0.0000000   0.0000000
 NMagM=    0.0000000   0.0000000   0.0000000   0.0000000   0.0000000   0.0000000   0.0000000   0.0000000   0.0000000   0.0000000
 AtZNuc=   8.0000000   6.0000000   6.0000000   6.0000000   6.0000000   6.0000000   6.0000000   6.0000000   8.0000000   6.0000000

  Atom        11          12          13          14          15          16          17          18          19          20
 IAtWgt=          12          12          16          12           1           1           1           1           1           1
 AtmWgt=  12.0000000  12.0000000  15.9949146  12.0000000   1.0078250   1.0078250   1.0078250   1.0078250   1.0078250   1.0078250
 NucSpn=           0           0           0           0           1           1           1           1           1           1
 AtZEff=  -0.0000000  -0.0000000  -0.0000000  -0.0000000  -0.0000000  -0.0000000  -0.0000000  -0.0000000  -0.0000000  -0.0000000
 NQMom=    0.0000000   0.0000000   0.0000000   0.0000000   0.0000000   0.0000000   0.0000000   0.0000000   0.0000000   0.0000000
 NMagM=    0.0000000   0.0000000   0.0000000   0.0000000   2.7928460   2.7928460   2.7928460   2.7928460   2.7928460   2.7928460
 AtZNuc=   6.0000000   6.0000000   8.0000000   6.0000000   1.0000000   1.0000000   1.0000000   1.0000000   1.0000000   1.0000000

  Atom        21          22          23          24          25          26
 IAtWgt=           1           1           1           1           1           1
 AtmWgt=   1.0078250   1.0078250   1.0078250   1.0078250   1.0078250   1.0078250
 NucSpn=           1           1           1           1           1           1
 AtZEff=  -0.0000000  -0.0000000  -0.0000000  -0.0000000  -0.0000000  -0.0000000
 NQMom=    0.0000000   0.0000000   0.0000000   0.0000000   0.0000000   0.0000000
 NMagM=    2.7928460   2.7928460   2.7928460   2.7928460   2.7928460   2.7928460
 AtZNuc=   1.0000000   1.0000000   1.0000000   1.0000000   1.0000000   1.0000000
 Leave Link  101 at Sat Jan 24 10:06:04 2026, MaxMem=  4294967296 cpu:               5.6 elap:               0.3
 (Enter /root/g16/l103.exe)

 GradGradGradGradGradGradGradGradGradGradGradGradGradGradGradGradGradGrad
 Berny optimization.
 Initialization pass.
                           ----------------------------
                           !    Initial Parameters    !
                           ! (Angstroms and Degrees)  !
 --------------------------                            --------------------------
 ! Name  Definition              Value          Derivative Info.                !
 --------------------------------------------------------------------------------
 ! R1    R(1,2)                  1.2155         calculate D2E/DX2 analytically  !
 ! R2    R(2,3)                  1.46           calculate D2E/DX2 analytically  !
 ! R3    R(2,12)                 1.5272         calculate D2E/DX2 analytically  !
 ! R4    R(3,4)                  1.3424         calculate D2E/DX2 analytically  !
 ! R5    R(3,15)                 1.0803         calculate D2E/DX2 analytically  !
 ! R6    R(4,5)                  1.4912         calculate D2E/DX2 analytically  !
 ! R7    R(4,14)                 1.5032         calculate D2E/DX2 analytically  !
 ! R8    R(5,6)                  1.5494         calculate D2E/DX2 analytically  !
 ! R9    R(5,16)                 1.09           calculate D2E/DX2 analytically  !
 ! R10   R(5,17)                 1.0906         calculate D2E/DX2 analytically  !
 ! R11   R(6,7)                  1.5401         calculate D2E/DX2 analytically  !
 ! R12   R(6,18)                 1.0899         calculate D2E/DX2 analytically  !
 ! R13   R(6,19)                 1.0901         calculate D2E/DX2 analytically  !
 ! R14   R(7,8)                  1.5107         calculate D2E/DX2 analytically  !
 ! R15   R(7,20)                 1.0918         calculate D2E/DX2 analytically  !
 ! R16   R(7,21)                 1.0884         calculate D2E/DX2 analytically  !
 ! R17   R(8,9)                  1.2093         calculate D2E/DX2 analytically  !
 ! R18   R(8,10)                 1.5175         calculate D2E/DX2 analytically  !
 ! R19   R(10,11)                1.5381         calculate D2E/DX2 analytically  !
 ! R20   R(10,14)                1.5617         calculate D2E/DX2 analytically  !
 ! R21   R(10,22)                1.0939         calculate D2E/DX2 analytically  !
 ! R22   R(11,12)                1.5596         calculate D2E/DX2 analytically  !
 ! R23   R(11,23)                1.0892         calculate D2E/DX2 analytically  !
 ! R24   R(11,24)                1.0878         calculate D2E/DX2 analytically  !
 ! R25   R(12,13)                1.4122         calculate D2E/DX2 analytically  !
 ! R26   R(12,25)                1.0905         calculate D2E/DX2 analytically  !
 ! R27   R(13,14)                1.4053         calculate D2E/DX2 analytically  !
 ! R28   R(14,26)                1.091          calculate D2E/DX2 analytically  !
 ! A1    A(1,2,3)              124.4244         calculate D2E/DX2 analytically  !
 ! A2    A(1,2,12)             122.9936         calculate D2E/DX2 analytically  !
 ! A3    A(3,2,12)             112.3655         calculate D2E/DX2 analytically  !
 ! A4    A(2,3,4)              120.2482         calculate D2E/DX2 analytically  !
 ! A5    A(2,3,15)             117.3831         calculate D2E/DX2 analytically  !
 ! A6    A(4,3,15)             122.1977         calculate D2E/DX2 analytically  !
 ! A7    A(3,4,5)              124.1134         calculate D2E/DX2 analytically  !
 ! A8    A(3,4,14)             118.5427         calculate D2E/DX2 analytically  !
 ! A9    A(5,4,14)             116.8753         calculate D2E/DX2 analytically  !
 ! A10   A(4,5,6)              110.0909         calculate D2E/DX2 analytically  !
 ! A11   A(4,5,16)             110.2778         calculate D2E/DX2 analytically  !
 ! A12   A(4,5,17)             109.4507         calculate D2E/DX2 analytically  !
 ! A13   A(6,5,16)             109.0973         calculate D2E/DX2 analytically  !
 ! A14   A(6,5,17)             109.4881         calculate D2E/DX2 analytically  !
 ! A15   A(16,5,17)            108.4077         calculate D2E/DX2 analytically  !
 ! A16   A(5,6,7)              113.9452         calculate D2E/DX2 analytically  !
 ! A17   A(5,6,18)             108.8136         calculate D2E/DX2 analytically  !
 ! A18   A(5,6,19)             109.6719         calculate D2E/DX2 analytically  !
 ! A19   A(7,6,18)             108.9825         calculate D2E/DX2 analytically  !
 ! A20   A(7,6,19)             107.1672         calculate D2E/DX2 analytically  !
 ! A21   A(18,6,19)            108.1042         calculate D2E/DX2 analytically  !
 ! A22   A(6,7,8)              111.5258         calculate D2E/DX2 analytically  !
 ! A23   A(6,7,20)             107.8356         calculate D2E/DX2 analytically  !
 ! A24   A(6,7,21)             109.4936         calculate D2E/DX2 analytically  !
 ! A25   A(8,7,20)             107.7949         calculate D2E/DX2 analytically  !
 ! A26   A(8,7,21)             111.1267         calculate D2E/DX2 analytically  !
 ! A27   A(20,7,21)            108.9613         calculate D2E/DX2 analytically  !
 ! A28   A(7,8,9)              121.6703         calculate D2E/DX2 analytically  !
 ! A29   A(7,8,10)             118.4429         calculate D2E/DX2 analytically  !
 ! A30   A(9,8,10)             119.8473         calculate D2E/DX2 analytically  !
 ! A31   A(8,10,11)            118.4948         calculate D2E/DX2 analytically  !
 ! A32   A(8,10,14)            113.0873         calculate D2E/DX2 analytically  !
 ! A33   A(8,10,22)            107.0585         calculate D2E/DX2 analytically  !
 ! A34   A(11,10,14)           100.8309         calculate D2E/DX2 analytically  !
 ! A35   A(11,10,22)           109.4745         calculate D2E/DX2 analytically  !
 ! A36   A(14,10,22)           107.3904         calculate D2E/DX2 analytically  !
 ! A37   A(10,11,12)           103.1589         calculate D2E/DX2 analytically  !
 ! A38   A(10,11,23)           113.284          calculate D2E/DX2 analytically  !
 ! A39   A(10,11,24)           110.8082         calculate D2E/DX2 analytically  !
 ! A40   A(12,11,23)           110.8728         calculate D2E/DX2 analytically  !
 ! A41   A(12,11,24)           110.4454         calculate D2E/DX2 analytically  !
 ! A42   A(23,11,24)           108.2326         calculate D2E/DX2 analytically  !
 ! A43   A(2,12,11)            108.6266         calculate D2E/DX2 analytically  !
 ! A44   A(2,12,13)            109.1166         calculate D2E/DX2 analytically  !
 ! A45   A(2,12,25)            111.0317         calculate D2E/DX2 analytically  !
 ! A46   A(11,12,13)           105.3027         calculate D2E/DX2 analytically  !
 ! A47   A(11,12,25)           113.555          calculate D2E/DX2 analytically  !
 ! A48   A(13,12,25)           108.9873         calculate D2E/DX2 analytically  !
 ! A49   A(12,13,14)           103.2336         calculate D2E/DX2 analytically  !
 ! A50   A(4,14,10)            108.8318         calculate D2E/DX2 analytically  !
 ! A51   A(4,14,13)            111.2517         calculate D2E/DX2 analytically  !
 ! A52   A(4,14,26)            111.979          calculate D2E/DX2 analytically  !
 ! A53   A(10,14,13)           103.1355         calculate D2E/DX2 analytically  !
 ! A54   A(10,14,26)           112.9592         calculate D2E/DX2 analytically  !
 ! A55   A(13,14,26)           108.3631         calculate D2E/DX2 analytically  !
 ! D1    D(1,2,3,4)           -175.4003         calculate D2E/DX2 analytically  !
 ! D2    D(1,2,3,15)            -0.049          calculate D2E/DX2 analytically  !
 ! D3    D(12,2,3,4)            -0.622          calculate D2E/DX2 analytically  !
 ! D4    D(12,2,3,15)          174.7293         calculate D2E/DX2 analytically  !
 ! D5    D(1,2,12,11)          102.1072         calculate D2E/DX2 analytically  !
 ! D6    D(1,2,12,13)         -143.5882         calculate D2E/DX2 analytically  !
 ! D7    D(1,2,12,25)          -23.4429         calculate D2E/DX2 analytically  !
 ! D8    D(3,2,12,11)          -72.7576         calculate D2E/DX2 analytically  !
 ! D9    D(3,2,12,13)           41.547          calculate D2E/DX2 analytically  !
 ! D10   D(3,2,12,25)          161.6923         calculate D2E/DX2 analytically  !
 ! D11   D(2,3,4,5)            164.9557         calculate D2E/DX2 analytically  !
 ! D12   D(2,3,4,14)            -6.9305         calculate D2E/DX2 analytically  !
 ! D13   D(15,3,4,5)           -10.1658         calculate D2E/DX2 analytically  !
 ! D14   D(15,3,4,14)          177.948          calculate D2E/DX2 analytically  !
 ! D15   D(3,4,5,6)            -77.451          calculate D2E/DX2 analytically  !
 ! D16   D(3,4,5,16)            42.982          calculate D2E/DX2 analytically  !
 ! D17   D(3,4,5,17)           162.158          calculate D2E/DX2 analytically  !
 ! D18   D(14,4,5,6)            94.5591         calculate D2E/DX2 analytically  !
 ! D19   D(14,4,5,16)         -145.0079         calculate D2E/DX2 analytically  !
 ! D20   D(14,4,5,17)          -25.8319         calculate D2E/DX2 analytically  !
 ! D21   D(3,4,14,10)           86.4824         calculate D2E/DX2 analytically  !
 ! D22   D(3,4,14,13)          -26.4885         calculate D2E/DX2 analytically  !
 ! D23   D(3,4,14,26)         -147.9202         calculate D2E/DX2 analytically  !
 ! D24   D(5,4,14,10)          -85.99           calculate D2E/DX2 analytically  !
 ! D25   D(5,4,14,13)          161.039          calculate D2E/DX2 analytically  !
 ! D26   D(5,4,14,26)           39.6073         calculate D2E/DX2 analytically  !
 ! D27   D(4,5,6,7)            -20.8936         calculate D2E/DX2 analytically  !
 ! D28   D(4,5,6,18)          -142.7166         calculate D2E/DX2 analytically  !
 ! D29   D(4,5,6,19)            99.2211         calculate D2E/DX2 analytically  !
 ! D30   D(16,5,6,7)          -142.0355         calculate D2E/DX2 analytically  !
 ! D31   D(16,5,6,18)           96.1415         calculate D2E/DX2 analytically  !
 ! D32   D(16,5,6,19)          -21.9208         calculate D2E/DX2 analytically  !
 ! D33   D(17,5,6,7)            99.4748         calculate D2E/DX2 analytically  !
 ! D34   D(17,5,6,18)          -22.3481         calculate D2E/DX2 analytically  !
 ! D35   D(17,5,6,19)         -140.4104         calculate D2E/DX2 analytically  !
 ! D36   D(5,6,7,8)            -54.241          calculate D2E/DX2 analytically  !
 ! D37   D(5,6,7,20)          -172.4064         calculate D2E/DX2 analytically  !
 ! D38   D(5,6,7,21)            69.1699         calculate D2E/DX2 analytically  !
 ! D39   D(18,6,7,8)            67.4886         calculate D2E/DX2 analytically  !
 ! D40   D(18,6,7,20)          -50.6768         calculate D2E/DX2 analytically  !
 ! D41   D(18,6,7,21)         -169.1004         calculate D2E/DX2 analytically  !
 ! D42   D(19,6,7,8)          -175.7545         calculate D2E/DX2 analytically  !
 ! D43   D(19,6,7,20)           66.0802         calculate D2E/DX2 analytically  !
 ! D44   D(19,6,7,21)          -52.3435         calculate D2E/DX2 analytically  !
 ! D45   D(6,7,8,9)            -84.5939         calculate D2E/DX2 analytically  !
 ! D46   D(6,7,8,10)            93.116          calculate D2E/DX2 analytically  !
 ! D47   D(20,7,8,9)            33.596          calculate D2E/DX2 analytically  !
 ! D48   D(20,7,8,10)         -148.6942         calculate D2E/DX2 analytically  !
 ! D49   D(21,7,8,9)           152.9279         calculate D2E/DX2 analytically  !
 ! D50   D(21,7,8,10)          -29.3622         calculate D2E/DX2 analytically  !
 ! D51   D(7,8,10,11)           53.3601         calculate D2E/DX2 analytically  !
 ! D52   D(7,8,10,14)          -64.2742         calculate D2E/DX2 analytically  !
 ! D53   D(7,8,10,22)          177.6489         calculate D2E/DX2 analytically  !
 ! D54   D(9,8,10,11)         -128.8871         calculate D2E/DX2 analytically  !
 ! D55   D(9,8,10,14)          113.4786         calculate D2E/DX2 analytically  !
 ! D56   D(9,8,10,22)           -4.5983         calculate D2E/DX2 analytically  !
 ! D57   D(8,10,11,12)        -135.5813         calculate D2E/DX2 analytically  !
 ! D58   D(8,10,11,23)         -15.6505         calculate D2E/DX2 analytically  !
 ! D59   D(8,10,11,24)         106.2147         calculate D2E/DX2 analytically  !
 ! D60   D(14,10,11,12)        -11.6546         calculate D2E/DX2 analytically  !
 ! D61   D(14,10,11,23)        108.2762         calculate D2E/DX2 analytically  !
 ! D62   D(14,10,11,24)       -129.8586         calculate D2E/DX2 analytically  !
 ! D63   D(22,10,11,12)        101.3262         calculate D2E/DX2 analytically  !
 ! D64   D(22,10,11,23)       -138.743          calculate D2E/DX2 analytically  !
 ! D65   D(22,10,11,24)        -16.8779         calculate D2E/DX2 analytically  !
 ! D66   D(8,10,14,4)           46.9548         calculate D2E/DX2 analytically  !
 ! D67   D(8,10,14,13)         165.1737         calculate D2E/DX2 analytically  !
 ! D68   D(8,10,14,26)         -78.0702         calculate D2E/DX2 analytically  !
 ! D69   D(11,10,14,4)         -80.6041         calculate D2E/DX2 analytically  !
 ! D70   D(11,10,14,13)         37.6148         calculate D2E/DX2 analytically  !
 ! D71   D(11,10,14,26)        154.3709         calculate D2E/DX2 analytically  !
 ! D72   D(22,10,14,4)         164.8379         calculate D2E/DX2 analytically  !
 ! D73   D(22,10,14,13)        -76.9431         calculate D2E/DX2 analytically  !
 ! D74   D(22,10,14,26)         39.813          calculate D2E/DX2 analytically  !
 ! D75   D(10,11,12,2)          99.5383         calculate D2E/DX2 analytically  !
 ! D76   D(10,11,12,13)        -17.239          calculate D2E/DX2 analytically  !
 ! D77   D(10,11,12,25)       -136.3999         calculate D2E/DX2 analytically  !
 ! D78   D(23,11,12,2)         -22.0363         calculate D2E/DX2 analytically  !
 ! D79   D(23,11,12,13)       -138.8136         calculate D2E/DX2 analytically  !
 ! D80   D(23,11,12,25)        102.0254         calculate D2E/DX2 analytically  !
 ! D81   D(24,11,12,2)        -142.0044         calculate D2E/DX2 analytically  !
 ! D82   D(24,11,12,13)        101.2183         calculate D2E/DX2 analytically  !
 ! D83   D(24,11,12,25)        -17.9427         calculate D2E/DX2 analytically  !
 ! D84   D(2,12,13,14)         -73.8481         calculate D2E/DX2 analytically  !
 ! D85   D(11,12,13,14)         42.5948         calculate D2E/DX2 analytically  !
 ! D86   D(25,12,13,14)        164.7562         calculate D2E/DX2 analytically  !
 ! D87   D(12,13,14,4)          65.8985         calculate D2E/DX2 analytically  !
 ! D88   D(12,13,14,10)        -50.6147         calculate D2E/DX2 analytically  !
 ! D89   D(12,13,14,26)       -170.5823         calculate D2E/DX2 analytically  !
 --------------------------------------------------------------------------------
 Trust Radius=3.00D-01 FncErr=1.00D-07 GrdErr=1.00D-06 EigMax=2.50D+02 EigMin=1.00D-04
 Number of steps in this run=    156 maximum allowed number of steps=    156.
 GradGradGradGradGradGradGradGradGradGradGradGradGradGradGradGradGradGrad

 Leave Link  103 at Sat Jan 24 10:06:04 2026, MaxMem=  4294967296 cpu:               0.3 elap:               0.0
 (Enter /root/g16/l202.exe)
                          Input orientation:                          
 ---------------------------------------------------------------------
 Center     Atomic      Atomic             Coordinates (Angstroms)
 Number     Number       Type             X           Y           Z
 ---------------------------------------------------------------------
      1          8           0        2.902930    0.988370    1.362276
      2          6           0        2.013956    0.758874    0.565681
      3          6           0        0.791582    1.547808    0.443081
      4          6           0       -0.177865    1.165656   -0.403129
      5          6           0       -1.570543    1.698031   -0.374748
      6          6           0       -2.368630    1.039634    0.778626
      7          6           0       -1.777059   -0.296573    1.264903
      8          6           0       -1.599674   -1.271798    0.124881
      9          8           0       -2.506341   -1.976033   -0.255113
     10          6           0       -0.258564   -1.319289   -0.583556
     11          6           0        1.011067   -1.518751    0.261481
     12          6           0        2.002857   -0.473815   -0.335757
     13          8           0        1.462517   -0.122947   -1.592406
     14          6           0        0.089069    0.009756   -1.326304
     15          1           0        0.675305    2.390582    1.108790
     16          1           0       -1.559153    2.778265   -0.229312
     17          1           0       -2.060726    1.483638   -1.325083
     18          1           0       -3.393468    0.873815    0.446978
     19          1           0       -2.394797    1.711232    1.636868
     20          1           0       -2.481853   -0.736174    1.973443
     21          1           0       -0.832796   -0.111965    1.773756
     22          1           0       -0.322083   -2.108615   -1.338242
     23          1           0        0.853224   -1.340643    1.324329
     24          1           0        1.401986   -2.526555    0.139644
     25          1           0        3.011498   -0.862774   -0.479331
     26          1           0       -0.436400    0.116262   -2.276465
 ---------------------------------------------------------------------
                    Distance matrix (angstroms):
                    1          2          3          4          5
     1  O    0.000000
     2  C    1.215527   0.000000
     3  C    2.369743   1.460016   0.000000
     4  C    3.555191   2.430668   1.342363   0.000000
     5  C    4.851064   3.822964   2.504205   1.491234   0.000000
     6  C    5.304019   4.396730   3.218349   2.492364   1.549419
     7  C    4.854158   3.996833   3.267269   2.734568   2.590279
     8  C    5.187769   4.168484   3.710732   2.870804   3.011704
     9  O    6.376820   5.346635   4.876599   3.913300   3.793253
    10  C    4.371109   3.286922   3.221340   2.492793   3.296833
    11  C    3.328145   2.507170   3.079762   3.010201   4.173390
    12  C    2.414835   1.527166   2.482083   2.729093   4.181820
    13  O    3.469865   2.395628   2.717496   2.401194   3.741404
    14  C    4.012973   2.801067   2.447417   1.503199   2.551478
    15  H    2.644384   2.179317   1.080258   2.124675   2.779271
    16  H    5.064292   4.180558   2.737168   2.130417   1.090040
    17  H    5.666133   4.550088   3.356513   2.120442   1.090587
    18  H    6.363608   5.409948   4.238976   3.338855   2.162780
    19  H    5.353862   4.635896   3.406588   3.061703   2.173975
    20  H    5.687132   4.942597   4.274805   3.817515   3.502834
    21  H    3.916082   3.212756   2.676592   2.607696   2.904552
    22  H    5.223487   4.159868   4.216965   3.408238   4.120379
    23  H    3.102747   2.516112   3.020521   3.213844   4.242057
    24  H    4.012774   3.368985   4.130993   4.052525   5.191113
    25  H    2.613434   2.171839   3.404376   3.780525   5.250120
    26  H    5.015190   3.807229   3.309561   2.162743   2.721177
                    6          7          8          9         10
     6  C    0.000000
     7  C    1.540087   0.000000
     8  C    2.522180   1.510688   0.000000
     9  O    3.190897   2.379682   1.209292   0.000000
    10  C    3.445640   2.601648   1.517469   2.364675   0.000000
    11  C    4.270260   3.205343   2.625950   3.584430   1.538127
    12  C    4.758390   4.108684   3.718493   4.753528   2.426984
    13  O    4.653071   4.323102   3.694042   4.579750   2.326184
    14  C    3.395830   3.207900   2.569080   3.439035   1.561693
    15  H    3.346582   3.641327   4.422288   5.572291   4.183215
    16  H    2.166572   3.425608   4.065724   4.847802   4.313580
    17  H    2.171989   3.155573   3.147601   3.648661   3.413803
    18  H    1.089852   2.156754   2.815156   3.066196   3.962238
    19  H    1.090096   2.133363   3.437557   4.145836   4.321786
    20  H    2.143339   1.091795   2.117148   2.550355   3.438209
    21  H    2.162232   1.088414   2.156874   3.223634   2.710036
    22  H    4.310563   3.489529   2.115000   2.441665   1.093902
    23  H    4.042753   2.830548   2.731322   3.766302   2.208291
    24  H    5.229106   4.042939   3.253398   3.966602   2.176680
    25  H    5.843577   5.127690   4.668541   5.633486   3.303418
    26  H    3.730913   3.809079   3.007720   3.570464   2.226741
                   11         12         13         14         15
    11  C    0.000000
    12  C    1.559561   0.000000
    13  O    2.364101   1.412177   0.000000
    14  C    2.389032   2.208531   1.405269   0.000000
    15  H    4.014169   3.471870   3.772797   3.455674   0.000000
    16  H    5.031029   4.824445   4.405173   3.403626   2.633176
    17  H    4.579021   4.617693   3.881471   2.606520   3.772552
    18  H    5.015846   5.616858   5.360337   4.002398   4.392435
    19  H    4.891256   5.291978   5.354558   4.224334   3.188402
    20  H    3.967838   5.051125   5.352512   4.249045   4.526796
    21  H    2.768728   3.552732   4.074264   3.236514   2.996546
    22  H    2.164335   3.013784   2.681842   2.157936   5.217808
    23  H    1.089166   2.197483   3.218907   3.071378   3.741678
    24  H    1.087810   2.191071   2.963274   3.210238   5.064143
    25  H    2.231777   1.090532   2.045879   3.165322   4.308626
    26  H    3.348074   3.172461   2.032497   1.090994   4.227100
                   16         17         18         19         20
    16  H    0.000000
    17  H    1.768714   0.000000
    18  H    2.729287   2.299627   0.000000
    19  H    2.306402   2.989407   1.764780   0.000000
    20  H    4.249093   3.998149   2.398584   2.471975   0.000000
    21  H    3.590725   3.695479   3.047809   2.404710   1.774515
    22  H    5.161557   3.990907   4.638459   5.266750   4.185147
    23  H    5.019838   4.846344   4.869082   4.467803   3.451010
    24  H    6.086509   5.497040   5.886710   5.883543   4.653224
    25  H    5.848977   5.652292   6.700551   6.350735   6.017394
    26  H    3.540858   2.326646   4.090878   4.657620   4.792938
                   21         22         23         24         25
    21  H    0.000000
    22  H    3.732556   0.000000
    23  H    2.134080   3.010051   0.000000
    24  H    3.673530   2.308947   1.763804   0.000000
    25  H    4.518707   3.660958   2.853015   2.396210   0.000000
    26  H    4.075967   2.417314   4.092850   4.025137   4.009514
                   26
    26  H    0.000000
 Stoichiometry    C11H12O3
 Framework group  C1[X(C11H12O3)]
 Deg. of freedom    72
 Full point group                 C1      NOp   1
 Largest Abelian subgroup         C1      NOp   1
 Largest concise Abelian subgroup C1      NOp   1
                         Standard orientation:                         
 ---------------------------------------------------------------------
 Center     Atomic      Atomic             Coordinates (Angstroms)
 Number     Number       Type             X           Y           Z
 ---------------------------------------------------------------------
      1          8           0       -3.072274    0.837979   -1.131424
      2          6           0       -2.154045    0.523112   -0.399838
      3          6           0       -1.093781    1.429706    0.030947
      4          6           0       -0.068694    0.970579    0.766024
      5          6           0        1.204922    1.715456    0.982449
      6          6           0        2.105208    1.606687   -0.273877
      7          6           0        1.763053    0.414422   -1.186731
      8          6           0        1.768099   -0.888464   -0.422112
      9          8           0        2.788148   -1.510008   -0.233507
     10          6           0        0.459763   -1.389263    0.161129
     11          6           0       -0.755591   -1.524278   -0.771888
     12          6           0       -1.917869   -0.911284    0.068100
     13          8           0       -1.445893   -0.891809    1.398927
     14          6           0       -0.119778   -0.447005    1.263475
     15          1           0       -1.133572    2.447442   -0.329034
     16          1           0        0.998291    2.766739    1.183191
     17          1           0        1.728656    1.297055    1.842694
     18          1           0        3.144153    1.522741    0.044439
     19          1           0        2.007095    2.510734   -0.875027
     20          1           0        2.533448    0.351760   -1.957822
     21          1           0        0.799426    0.586225   -1.662704
     22          1           0        0.667022   -2.354607    0.632060
     23          1           0       -0.635741   -0.992346   -1.714738
     24          1           0       -0.957805   -2.569742   -0.994251
     25          1           0       -2.839292   -1.493128    0.026893
     26          1           0        0.380741   -0.560171    2.226253
 ---------------------------------------------------------------------
 Rotational constants (GHZ):           1.1988081           0.6677996           0.5644239
 Leave Link  202 at Sat Jan 24 10:06:04 2026, MaxMem=  4294967296 cpu:               0.3 elap:               0.0
 (Enter /root/g16/l301.exe)
 Standard basis: def2SVP (5D, 7F)
 Ernie: Thresh=  0.10000D-02 Tol=  0.10000D-05 Strict=F.
 There are   270 symmetry adapted cartesian basis functions of A   symmetry.
 There are   256 symmetry adapted basis functions of A   symmetry.
   256 basis functions,   434 primitive gaussians,   270 cartesian basis functions
    51 alpha electrons       51 beta electrons
       nuclear repulsion energy       947.8898314170 Hartrees.
 IExCor=  402 DFT=T Ex+Corr=B3LYP ExCW=0 ScaHFX=  0.200000
 ScaDFX=  0.800000  0.720000  1.000000  0.810000 ScalE2=  1.000000  1.000000
 IRadAn=      5 IRanWt=     -1 IRanGd=            0 ICorTp=0 IEmpDi=141
 NAtoms=   26 NActive=   26 NUniq=   26 SFac= 1.00D+00 NAtFMM=   60 NAOKFM=F Big=F
 Integral buffers will be    131072 words long.
 Raffenetti 2 integral format.
 Two-electron integral symmetry is turned on.
 R6Disp:  Grimme-D3(BJ) Dispersion energy=       -0.0582971301 Hartrees.
 Nuclear repulsion after empirical dispersion term =      947.8315342869 Hartrees.
 Force inversion solution in PCM.
 ------------------------------------------------------------------------------
 Polarizable Continuum Model (PCM)
 =================================
 Model                : PCM.
 Atomic radii         : UFF (Universal Force Field).
 Polarization charges : Total charges.
 Charge compensation  : None.
 Solution method      : Matrix inversion.
 Cavity type          : Scaled VdW (van der Waals Surface) (Alpha=1.100).
 Cavity algorithm     : GePol (No added spheres)
                        Default sphere list used, NSphG=   26.
                        Lebedev-Laikov grids with approx.  5.0 points / Ang**2.
                        Smoothing algorithm: York/Karplus (Gamma=1.0000).
                        Polarization charges: spherical gaussians, with
                                              point-specific exponents (IZeta= 3).
                        Self-potential: point-specific (ISelfS= 7).
                        Self-field    : sphere-specific E.n sum rule (ISelfD= 2).
 1st derivatives      : Analytical E(r).r(x)/FMM algorithm (CHGder, D1EAlg=3).
                        Cavity 1st derivative terms included.
 2nd derivatives      : Analytical E(r).r(xy)/FMM algorithm (CHGder, D2EAlg=3).
                        Cavity 2nd derivative terms included.
 Solvent              : Acetone, Eps=  20.493000 Eps(inf)=   1.846337
 ------------------------------------------------------------------------------
 GePol: Number of generator spheres                  =      26
 GePol: Total number of spheres                      =      26
 GePol: Number of exposed spheres                    =      26 (100.00%)
 GePol: Number of points                             =    1814
 GePol: Average weight of points                     =       0.13
 GePol: Minimum weight of points                     =   0.20D-08
 GePol: Maximum weight of points                     =    0.20577
 GePol: Number of points with low weight             =     136
 GePol: Fraction of low-weight points (<1% of avg)   =       7.50%
 GePol: Cavity surface area                          =    235.815 Ang**2
 GePol: Cavity volume                                =    256.136 Ang**3
 Leave Link  301 at Sat Jan 24 10:06:04 2026, MaxMem=  4294967296 cpu:               0.4 elap:               0.0
 (Enter /root/g16/l302.exe)
 NPDir=0 NMtPBC=     1 NCelOv=     1 NCel=       1 NClECP=     1 NCelD=      1
         NCelK=      1 NCelE2=     1 NClLst=     1 CellRange=     0.0.
 One-electron integrals computed using PRISM.
 One-electron integral symmetry used in STVInt
   1 Symmetry operations used in ECPInt.
 ECPInt:  NShTT=    7260 NPrTT=   26324 LenC2=    7137 LenP2D=   20012.
 LDataN:  DoStor=T MaxTD1= 4 Len=   56
 NBasis=   256 RedAO= T EigKep=  3.51D-04  NBF=   256
 NBsUse=   256 1.00D-06 EigRej= -1.00D+00 NBFU=   256
 Precomputing XC quadrature grid using
 IXCGrd= 4 IRadAn=           5 IRanWt=          -1 IRanGd=           0 AccXCQ= 0.00D+00.
 Generated NRdTot=       0 NPtTot=           0 NUsed=           0 NTot=          32
 NSgBfM=   270   269   270   270   270 MxSgAt=    26 MxSgA2=    26.
 Leave Link  302 at Sat Jan 24 10:06:04 2026, MaxMem=  4294967296 cpu:               1.9 elap:               0.1
 (Enter /root/g16/l303.exe)
 DipDrv:  MaxL=1.
 Leave Link  303 at Sat Jan 24 10:06:05 2026, MaxMem=  4294967296 cpu:               0.2 elap:               0.0
 (Enter /root/g16/l401.exe)
 ExpMin= 1.22D-01 ExpMax= 2.27D+03 ExpMxC= 3.41D+02 IAcc=3 IRadAn=         5 AccDes= 0.00D+00
 Harris functional with IExCor=  402 and IRadAn=       5 diagonalized for initial guess.
 HarFok:  IExCor=  402 AccDes= 0.00D+00 IRadAn=         5 IDoV= 1 UseB2=F ITyADJ=14
 ICtDFT=  3500011 ScaDFX=  1.000000  1.000000  1.000000  1.000000
 FoFCou: FMM=F IPFlag=           0 FMFlag=      100000 FMFlg1=           0
         NFxFlg=           0 DoJE=T BraDBF=F KetDBF=T FulRan=T
         wScrn=  0.000000 ICntrl=       500 IOpCl=  0 I1Cent=   200000004 NGrid=           0
         NMat0=    1 NMatS0=      1 NMatT0=    0 NMatD0=    1 NMtDS0=    0 NMtDT0=    0
 Petite list used in FoFCou.
 Harris En= -651.597728306936    
 JPrj=0 DoOrth=F DoCkMO=F.
 Leave Link  401 at Sat Jan 24 10:06:05 2026, MaxMem=  4294967296 cpu:               6.6 elap:               0.4
 (Enter /root/g16/l502.exe)
 Integral symmetry usage will be decided dynamically.
 Closed shell SCF:
 Using DIIS extrapolation, IDIIS=  1040.
 NGot=  4294967296 LenX=  4294814202 LenY=  4294740861
 Requested convergence on RMS density matrix=1.00D-08 within 128 cycles.
 Requested convergence on MAX density matrix=1.00D-06.
 Requested convergence on             energy=1.00D-06.
 No special actions if energy rises.
 Fock matrices will be formed incrementally for  20 cycles.

 Cycle   1  Pass 1  IDiag  1:
 FoFJK:  IHMeth= 1 ICntrl=       0 DoSepK=F KAlg= 0 I1Cent=           0 FoldK=F
 IRaf= 960000000 NMat=       1 IRICut=       1 DoRegI=T DoRafI=F ISym2E= 0 IDoP0=0 IntGTp=1.
 FoFCou: FMM=F IPFlag=           0 FMFlag=      100000 FMFlg1=           0
         NFxFlg=           0 DoJE=F BraDBF=F KetDBF=F FulRan=T
         wScrn=  0.000000 ICntrl=         0 IOpCl=  0 I1Cent=           0 NGrid=           0
         NMat0=    1 NMatS0=      1 NMatT0=    0 NMatD0=    1 NMtDS0=    0 NMtDT0=    0
 Symmetry not used in FoFCou.
 Inv3:  Mode=1 IEnd=     9871788.
 Iteration    1 A*A^-1 deviation from unit magnitude is 2.66D-15 for    245.
 Iteration    1 A*A^-1 deviation from orthogonality  is 1.83D-15 for   1297    442.
 Iteration    1 A^-1*A deviation from unit magnitude is 2.66D-15 for    555.
 Iteration    1 A^-1*A deviation from orthogonality  is 2.20D-15 for   1480     87.
 E= -651.335936800372    
 DIIS: error= 2.26D-02 at cycle   1 NSaved=   1.
 NSaved= 1 IEnMin= 1 EnMin= -651.335936800372     IErMin= 1 ErrMin= 2.26D-02
 ErrMax= 2.26D-02  0.00D+00 EMaxC= 1.00D-01 BMatC= 3.02D-01 BMatP= 3.02D-01
 IDIUse=3 WtCom= 7.74D-01 WtEn= 2.26D-01
 Coeff-Com:  0.100D+01
 Coeff-En:   0.100D+01
 Coeff:      0.100D+01
 Gap=     0.152 Goal=   None    Shift=    0.000
 GapD=    0.152 DampG=1.000 DampE=0.500 DampFc=0.5000 IDamp=-1.
 Damping current iteration by 5.00D-01
 RMSDP=7.56D-03 MaxDP=3.49D-01              OVMax= 1.66D-01

 Cycle   2  Pass 1  IDiag  1:
 RMSU=  3.77D-03    CP:  9.89D-01
 E= -651.442150057059     Delta-E=       -0.106213256687 Rises=F Damp=T
 DIIS: error= 6.77D-03 at cycle   2 NSaved=   2.
 NSaved= 2 IEnMin= 2 EnMin= -651.442150057059     IErMin= 2 ErrMin= 6.77D-03
 ErrMax= 6.77D-03  0.00D+00 EMaxC= 1.00D-01 BMatC= 3.27D-02 BMatP= 3.02D-01
 IDIUse=3 WtCom= 9.32D-01 WtEn= 6.77D-02
 Coeff-Com:  0.159D+00 0.841D+00
 Coeff-En:   0.220D+00 0.780D+00
 Coeff:      0.163D+00 0.837D+00
 Gap=     0.196 Goal=   None    Shift=    0.000
 RMSDP=2.29D-03 MaxDP=1.22D-01 DE=-1.06D-01 OVMax= 1.33D-01

 Cycle   3  Pass 1  IDiag  1:
 RMSU=  2.16D-03    CP:  9.63D-01  8.67D-01
 E= -651.588180076936     Delta-E=       -0.146030019877 Rises=F Damp=F
 DIIS: error= 1.02D-02 at cycle   3 NSaved=   3.
 NSaved= 3 IEnMin= 3 EnMin= -651.588180076936     IErMin= 2 ErrMin= 6.77D-03
 ErrMax= 1.02D-02  0.00D+00 EMaxC= 1.00D-01 BMatC= 3.40D-02 BMatP= 3.27D-02
 IDIUse=3 WtCom= 8.98D-01 WtEn= 1.02D-01
 Coeff-Com:  0.247D-01 0.504D+00 0.472D+00
 Coeff-En:   0.000D+00 0.000D+00 0.100D+01
 Coeff:      0.222D-01 0.452D+00 0.525D+00
 Gap=     0.177 Goal=   None    Shift=    0.000
 RMSDP=1.24D-03 MaxDP=5.56D-02 DE=-1.46D-01 OVMax= 6.08D-02

 Cycle   4  Pass 1  IDiag  1:
 RMSU=  9.17D-04    CP:  9.72D-01  1.00D+00  7.09D-01
 E= -651.611398035991     Delta-E=       -0.023217959054 Rises=F Damp=F
 DIIS: error= 3.91D-03 at cycle   4 NSaved=   4.
 NSaved= 4 IEnMin= 4 EnMin= -651.611398035991     IErMin= 4 ErrMin= 3.91D-03
 ErrMax= 3.91D-03  0.00D+00 EMaxC= 1.00D-01 BMatC= 7.49D-03 BMatP= 3.27D-02
 IDIUse=3 WtCom= 9.61D-01 WtEn= 3.91D-02
 Coeff-Com:  0.328D-02 0.135D+00 0.334D+00 0.527D+00
 Coeff-En:   0.000D+00 0.000D+00 0.214D+00 0.786D+00
 Coeff:      0.315D-02 0.130D+00 0.329D+00 0.537D+00
 Gap=     0.180 Goal=   None    Shift=    0.000
 RMSDP=5.81D-04 MaxDP=2.71D-02 DE=-2.32D-02 OVMax= 2.43D-02

 Cycle   5  Pass 1  IDiag  1:
 RMSU=  2.28D-04    CP:  9.69D-01  9.28D-01  7.75D-01  5.41D-01
 E= -651.617681689546     Delta-E=       -0.006283653556 Rises=F Damp=F
 DIIS: error= 4.26D-04 at cycle   5 NSaved=   5.
 NSaved= 5 IEnMin= 5 EnMin= -651.617681689546     IErMin= 5 ErrMin= 4.26D-04
 ErrMax= 4.26D-04  0.00D+00 EMaxC= 1.00D-01 BMatC= 1.61D-04 BMatP= 7.49D-03
 IDIUse=3 WtCom= 9.96D-01 WtEn= 4.26D-03
 Coeff-Com: -0.284D-04 0.182D-01 0.105D+00 0.231D+00 0.646D+00
 Coeff-En:   0.000D+00 0.000D+00 0.000D+00 0.000D+00 0.100D+01
 Coeff:     -0.283D-04 0.181D-01 0.104D+00 0.230D+00 0.647D+00
 Gap=     0.178 Goal=   None    Shift=    0.000
 RMSDP=9.47D-05 MaxDP=3.63D-03 DE=-6.28D-03 OVMax= 8.99D-03

 Cycle   6  Pass 1  IDiag  1:
 RMSU=  5.45D-05    CP:  9.69D-01  9.36D-01  7.76D-01  5.86D-01  7.52D-01
 E= -651.617799293038     Delta-E=       -0.000117603492 Rises=F Damp=F
 DIIS: error= 2.21D-04 at cycle   6 NSaved=   6.
 NSaved= 6 IEnMin= 6 EnMin= -651.617799293038     IErMin= 6 ErrMin= 2.21D-04
 ErrMax= 2.21D-04  0.00D+00 EMaxC= 1.00D-01 BMatC= 4.30D-05 BMatP= 1.61D-04
 IDIUse=3 WtCom= 9.98D-01 WtEn= 2.21D-03
 Coeff-Com: -0.148D-03-0.683D-03 0.359D-01 0.948D-01 0.405D+00 0.465D+00
 Coeff-En:   0.000D+00 0.000D+00 0.000D+00 0.000D+00 0.211D+00 0.789D+00
 Coeff:     -0.147D-03-0.682D-03 0.358D-01 0.946D-01 0.405D+00 0.466D+00
 Gap=     0.178 Goal=   None    Shift=    0.000
 RMSDP=3.22D-05 MaxDP=1.70D-03 DE=-1.18D-04 OVMax= 3.87D-03

 Cycle   7  Pass 1  IDiag  1:
 RMSU=  1.50D-05    CP:  9.69D-01  9.36D-01  7.79D-01  5.85D-01  7.70D-01
                    CP:  4.95D-01
 E= -651.617842545696     Delta-E=       -0.000043252659 Rises=F Damp=F
 DIIS: error= 4.89D-05 at cycle   7 NSaved=   7.
 NSaved= 7 IEnMin= 7 EnMin= -651.617842545696     IErMin= 7 ErrMin= 4.89D-05
 ErrMax= 4.89D-05  0.00D+00 EMaxC= 1.00D-01 BMatC= 1.58D-06 BMatP= 4.30D-05
 IDIUse=1 WtCom= 1.00D+00 WtEn= 0.00D+00
 Coeff-Com: -0.255D-04-0.157D-02 0.116D-01 0.323D-01 0.165D+00 0.238D+00
 Coeff-Com:  0.555D+00
 Coeff:     -0.255D-04-0.157D-02 0.116D-01 0.323D-01 0.165D+00 0.238D+00
 Coeff:      0.555D+00
 Gap=     0.178 Goal=   None    Shift=    0.000
 RMSDP=7.44D-06 MaxDP=2.55D-04 DE=-4.33D-05 OVMax= 4.34D-04

 Cycle   8  Pass 1  IDiag  1:
 RMSU=  4.46D-06    CP:  9.69D-01  9.35D-01  7.80D-01  5.87D-01  7.70D-01
                    CP:  5.14D-01  6.62D-01
 E= -651.617843957760     Delta-E=       -0.000001412064 Rises=F Damp=F
 DIIS: error= 1.25D-05 at cycle   8 NSaved=   8.
 NSaved= 8 IEnMin= 8 EnMin= -651.617843957760     IErMin= 8 ErrMin= 1.25D-05
 ErrMax= 1.25D-05  0.00D+00 EMaxC= 1.00D-01 BMatC= 1.18D-07 BMatP= 1.58D-06
 IDIUse=1 WtCom= 1.00D+00 WtEn= 0.00D+00
 Coeff-Com:  0.441D-04-0.757D-03 0.203D-02 0.550D-02 0.383D-01 0.647D-01
 Coeff-Com:  0.254D+00 0.636D+00
 Coeff:      0.441D-04-0.757D-03 0.203D-02 0.550D-02 0.383D-01 0.647D-01
 Coeff:      0.254D+00 0.636D+00
 Gap=     0.178 Goal=   None    Shift=    0.000
 RMSDP=2.33D-06 MaxDP=1.16D-04 DE=-1.41D-06 OVMax= 7.00D-05

 Cycle   9  Pass 1  IDiag  1:
 RMSU=  1.60D-06    CP:  9.69D-01  9.35D-01  7.80D-01  5.86D-01  7.74D-01
                    CP:  5.20D-01  6.86D-01  7.58D-01
 E= -651.617844046122     Delta-E=       -0.000000088362 Rises=F Damp=F
 DIIS: error= 7.34D-06 at cycle   9 NSaved=   9.
 NSaved= 9 IEnMin= 9 EnMin= -651.617844046122     IErMin= 9 ErrMin= 7.34D-06
 ErrMax= 7.34D-06  0.00D+00 EMaxC= 1.00D-01 BMatC= 2.10D-08 BMatP= 1.18D-07
 IDIUse=1 WtCom= 1.00D+00 WtEn= 0.00D+00
 Coeff-Com:  0.332D-04-0.337D-03 0.368D-03 0.804D-03 0.104D-01 0.190D-01
 Coeff-Com:  0.103D+00 0.369D+00 0.497D+00
 Coeff:      0.332D-04-0.337D-03 0.368D-03 0.804D-03 0.104D-01 0.190D-01
 Coeff:      0.103D+00 0.369D+00 0.497D+00
 Gap=     0.178 Goal=   None    Shift=    0.000
 RMSDP=8.77D-07 MaxDP=4.62D-05 DE=-8.84D-08 OVMax= 2.82D-05

 Cycle  10  Pass 1  IDiag  1:
 RMSU=  5.34D-07    CP:  9.69D-01  9.35D-01  7.80D-01  5.86D-01  7.74D-01
                    CP:  5.20D-01  6.93D-01  8.01D-01  6.27D-01
 E= -651.617844060679     Delta-E=       -0.000000014556 Rises=F Damp=F
 DIIS: error= 3.12D-06 at cycle  10 NSaved=  10.
 NSaved=10 IEnMin=10 EnMin= -651.617844060679     IErMin=10 ErrMin= 3.12D-06
 ErrMax= 3.12D-06  0.00D+00 EMaxC= 1.00D-01 BMatC= 2.67D-09 BMatP= 2.10D-08
 IDIUse=1 WtCom= 1.00D+00 WtEn= 0.00D+00
 Coeff-Com:  0.156D-04-0.745D-04-0.145D-03-0.567D-03-0.606D-03-0.747D-03
 Coeff-Com:  0.166D-01 0.109D+00 0.293D+00 0.584D+00
 Coeff:      0.156D-04-0.745D-04-0.145D-03-0.567D-03-0.606D-03-0.747D-03
 Coeff:      0.166D-01 0.109D+00 0.293D+00 0.584D+00
 Gap=     0.178 Goal=   None    Shift=    0.000
 RMSDP=3.16D-07 MaxDP=1.70D-05 DE=-1.46D-08 OVMax= 1.16D-05

 Cycle  11  Pass 1  IDiag  1:
 RMSU=  1.76D-07    CP:  9.69D-01  9.35D-01  7.80D-01  5.86D-01  7.74D-01
                    CP:  5.20D-01  6.96D-01  8.19D-01  6.88D-01  6.57D-01
 E= -651.617844062704     Delta-E=       -0.000000002025 Rises=F Damp=F
 DIIS: error= 6.21D-07 at cycle  11 NSaved=  11.
 NSaved=11 IEnMin=11 EnMin= -651.617844062704     IErMin=11 ErrMin= 6.21D-07
 ErrMax= 6.21D-07  0.00D+00 EMaxC= 1.00D-01 BMatC= 2.05D-10 BMatP= 2.67D-09
 IDIUse=1 WtCom= 1.00D+00 WtEn= 0.00D+00
 Coeff-Com:  0.632D-05-0.134D-04-0.916D-04-0.339D-03-0.977D-03-0.188D-02
 Coeff-Com:  0.825D-03 0.261D-01 0.110D+00 0.302D+00 0.565D+00
 Coeff:      0.632D-05-0.134D-04-0.916D-04-0.339D-03-0.977D-03-0.188D-02
 Coeff:      0.825D-03 0.261D-01 0.110D+00 0.302D+00 0.565D+00
 Gap=     0.178 Goal=   None    Shift=    0.000
 RMSDP=9.03D-08 MaxDP=4.17D-06 DE=-2.03D-09 OVMax= 3.23D-06

 Cycle  12  Pass 1  IDiag  1:
 RMSU=  6.41D-08    CP:  9.69D-01  9.35D-01  7.80D-01  5.86D-01  7.74D-01
                    CP:  5.19D-01  6.96D-01  8.22D-01  6.90D-01  7.08D-01
                    CP:  7.73D-01
 E= -651.617844062855     Delta-E=       -0.000000000151 Rises=F Damp=F
 DIIS: error= 1.67D-07 at cycle  12 NSaved=  12.
 NSaved=12 IEnMin=12 EnMin= -651.617844062855     IErMin=12 ErrMin= 1.67D-07
 ErrMax= 1.67D-07  0.00D+00 EMaxC= 1.00D-01 BMatC= 2.44D-11 BMatP= 2.05D-10
 IDIUse=1 WtCom= 1.00D+00 WtEn= 0.00D+00
 Coeff-Com:  0.134D-05 0.180D-05-0.276D-04-0.106D-03-0.422D-03-0.948D-03
 Coeff-Com: -0.171D-02-0.141D-02 0.186D-01 0.816D-01 0.299D+00 0.605D+00
 Coeff:      0.134D-05 0.180D-05-0.276D-04-0.106D-03-0.422D-03-0.948D-03
 Coeff:     -0.171D-02-0.141D-02 0.186D-01 0.816D-01 0.299D+00 0.605D+00
 Gap=     0.178 Goal=   None    Shift=    0.000
 RMSDP=2.89D-08 MaxDP=9.63D-07 DE=-1.51D-10 OVMax= 8.27D-07

 Cycle  13  Pass 1  IDiag  1:
 RMSU=  1.55D-08    CP:  9.69D-01  9.35D-01  7.80D-01  5.86D-01  7.74D-01
                    CP:  5.19D-01  6.96D-01  8.23D-01  6.95D-01  7.19D-01
                    CP:  8.13D-01  7.65D-01
 E= -651.617844062877     Delta-E=       -0.000000000023 Rises=F Damp=F
 DIIS: error= 3.64D-08 at cycle  13 NSaved=  13.
 NSaved=13 IEnMin=13 EnMin= -651.617844062877     IErMin=13 ErrMin= 3.64D-08
 ErrMax= 3.64D-08  0.00D+00 EMaxC= 1.00D-01 BMatC= 1.42D-12 BMatP= 2.44D-11
 IDIUse=1 WtCom= 1.00D+00 WtEn= 0.00D+00
 Coeff-Com:  0.236D-06 0.146D-05-0.431D-05-0.214D-04-0.999D-04-0.278D-03
 Coeff-Com: -0.721D-03-0.254D-02 0.371D-04 0.140D-01 0.926D-01 0.269D+00
 Coeff-Com:  0.628D+00
 Coeff:      0.236D-06 0.146D-05-0.431D-05-0.214D-04-0.999D-04-0.278D-03
 Coeff:     -0.721D-03-0.254D-02 0.371D-04 0.140D-01 0.926D-01 0.269D+00
 Coeff:      0.628D+00
 Gap=     0.178 Goal=   None    Shift=    0.000
 RMSDP=7.25D-09 MaxDP=2.20D-07 DE=-2.27D-11 OVMax= 4.04D-07

 Error on total polarization charges =  0.00858
 SCF Done:  E(RB3LYP) =  -651.617844063     A.U. after   13 cycles
            NFock= 13  Conv=0.72D-08     -V/T= 2.0094
 KE= 6.455397614650D+02 PE=-3.412365845839D+03 EE= 1.167376706024D+03
 Leave Link  502 at Sat Jan 24 10:06:23 2026, MaxMem=  4294967296 cpu:             258.2 elap:              17.7
 (Enter /root/g16/l801.exe)
 DoSCS=F DFT=T ScalE2(SS,OS)=  1.000000  1.000000
 Range of M.O.s used for correlation:     1   256
 NBasis=   256 NAE=    51 NBE=    51 NFC=     0 NFV=     0
 NROrb=    256 NOA=    51 NOB=    51 NVA=   205 NVB=   205

 **** Warning!!: The largest alpha MO coefficient is  0.10152981D+02

 Leave Link  801 at Sat Jan 24 10:06:23 2026, MaxMem=  4294967296 cpu:               0.1 elap:               0.0
 (Enter /root/g16/l1101.exe)
 Using compressed storage, NAtomX=    26.
 Will process     27 centers per pass.
   1 Symmetry operations used in ECPInt.
 ECPInt:  NShTT=    7260 NPrTT=   26324 LenC2=    7137 LenP2D=   20012.
 LDataN:  DoStor=T MaxTD1= 5 Len=  102
 R6Disp: Adding Grimme-D3(BJ) dispersion energy 1st derivatives to the gradient.
 Leave Link 1101 at Sat Jan 24 10:06:23 2026, MaxMem=  4294967296 cpu:               2.8 elap:               0.2
 (Enter /root/g16/l1102.exe)
 Symmetrizing basis deriv contribution to polar:
 IMax=3 JMax=2 DiffMx= 0.00D+00
 Leave Link 1102 at Sat Jan 24 10:06:23 2026, MaxMem=  4294967296 cpu:               0.2 elap:               0.0
 (Enter /root/g16/l1110.exe)
 Forming Gx(P) for the SCF density, NAtomX=    26.
 Integral derivatives from FoFJK, PRISM(SPDF).
 Do as many integral derivatives as possible in FoFJK.
 G2DrvN: MDV=    4294965288.
 G2DrvN: will do    27 centers at a time, making    1 passes.
 Calling FoFCou, ICntrl=  3107 FMM=F I1Cent=   0 AccDes= 0.00D+00.
 FoFJK:  IHMeth= 1 ICntrl=    3107 DoSepK=F KAlg= 0 I1Cent=           0 FoldK=F
 IRaf=         0 NMat=       1 IRICut=       1 DoRegI=T DoRafI=F ISym2E= 0 IDoP0=0 IntGTp=1.
 FoFCou: FMM=F IPFlag=           0 FMFlag=      100000 FMFlg1=           0
         NFxFlg=           0 DoJE=F BraDBF=F KetDBF=F FulRan=T
         wScrn=  0.000000 ICntrl=      3107 IOpCl=  0 I1Cent=           0 NGrid=           0
         NMat0=    1 NMatS0=      1 NMatT0=    0 NMatD0=    1 NMtDS0=    0 NMtDT0=    0
 Symmetry not used in FoFCou.
 NEqPCM:  Using equilibrium solvation (IEInf=0, Eps=  20.4930, EpsInf=   1.8463)
 G2PCM: DoFxE=T DoFxN=T DoGrad=T DoDP/DQ/DG/TGxP=FFFF NFrqRd=   0 IEInf=0 SqF1=F DoCFld=F IF1Alg=4.
 GePol: Maximum number of non-zero 1st derivatives   =     229
 End of G2Drv F.D. properties file   721 does not exist.
 End of G2Drv F.D. properties file   722 does not exist.
 End of G2Drv F.D. properties file   788 does not exist.
 Leave Link 1110 at Sat Jan 24 10:06:45 2026, MaxMem=  4294967296 cpu:             370.4 elap:              21.8
 (Enter /root/g16/l1002.exe)
 Minotr:  Closed shell wavefunction.
          IDoAtm=11111111111111111111111111
 NEqPCM:  Using equilibrium solvation (IEInf=0, Eps=  20.4930, EpsInf=   1.8463)
          Direct CPHF calculation.
          Differentiating once with respect to nuclear coordinates.
          Requested convergence is 1.0D-08 RMS, and 1.0D-07 maximum.
          Secondary convergence is 1.0D-12 RMS, and 1.0D-12 maximum.
          NewPWx=T KeepS1=F KeepF1=F KeepIn=T MapXYZ=F SortEE=F KeepMc=T.
         7749 words used for storage of precomputed grid.
 Keep R1 ints in memory in canonical form, NReq=558668821.
 FoFCou: FMM=F IPFlag=           0 FMFlag=           0 FMFlg1=           0
         NFxFlg=           0 DoJE=F BraDBF=F KetDBF=F FulRan=T
         wScrn=  0.000000 ICntrl=       600 IOpCl=  0 I1Cent=           0 NGrid=           0
         NMat0=    1 NMatS0=  32896 NMatT0=    0 NMatD0=    1 NMtDS0=    0 NMtDT0=    0
 Symmetry not used in FoFCou.
 Two-electron integral symmetry not used.
          MDV=    4294967296 using IRadAn=       1.
          Solving linear equations simultaneously, MaxMat=       0.
          There are    81 degrees of freedom in the 1st order CPHF.  IDoFFX=6 NUNeed=     0.
     75 vectors produced by pass  0 Test12= 1.29D-14 1.23D-09 XBig12= 1.70D-01 1.03D-01.
 AX will form    75 AO Fock derivatives at one time.
     75 vectors produced by pass  1 Test12= 1.29D-14 1.23D-09 XBig12= 3.69D-02 6.73D-02.
     75 vectors produced by pass  2 Test12= 1.29D-14 1.23D-09 XBig12= 3.80D-04 2.41D-03.
     75 vectors produced by pass  3 Test12= 1.29D-14 1.23D-09 XBig12= 1.68D-06 1.59D-04.
     75 vectors produced by pass  4 Test12= 1.29D-14 1.23D-09 XBig12= 4.83D-09 5.63D-06.
     51 vectors produced by pass  5 Test12= 1.29D-14 1.23D-09 XBig12= 5.67D-12 1.84D-07.
     12 vectors produced by pass  6 Test12= 1.29D-14 1.23D-09 XBig12= 5.33D-15 6.37D-09.
 InvSVY:  IOpt=1 It=  1 EMax= 3.33D-16
 Solved reduced A of dimension   438 with    81 vectors.
 End of Minotr F.D. properties file   721 does not exist.
 End of Minotr F.D. properties file   722 does not exist.
 End of Minotr F.D. properties file   788 does not exist.
 Leave Link 1002 at Sat Jan 24 10:07:16 2026, MaxMem=  4294967296 cpu:             499.0 elap:              31.4
 (Enter /root/g16/l601.exe)
 Copying SCF densities to generalized density rwf, IOpCl= 0 IROHF=0.

 **********************************************************************

            Population analysis using the SCF density.

 **********************************************************************

 Orbital symmetries:
       Occupied  (A) (A) (A) (A) (A) (A) (A) (A) (A) (A) (A) (A)
                 (A) (A) (A) (A) (A) (A) (A) (A) (A) (A) (A) (A)
                 (A) (A) (A) (A) (A) (A) (A) (A) (A) (A) (A) (A)
                 (A) (A) (A) (A) (A) (A) (A) (A) (A) (A) (A) (A)
                 (A) (A) (A)
       Virtual   (A) (A) (A) (A) (A) (A) (A) (A) (A) (A) (A) (A)
                 (A) (A) (A) (A) (A) (A) (A) (A) (A) (A) (A) (A)
                 (A) (A) (A) (A) (A) (A) (A) (A) (A) (A) (A) (A)
                 (A) (A) (A) (A) (A) (A) (A) (A) (A) (A) (A) (A)
                 (A) (A) (A) (A) (A) (A) (A) (A) (A) (A) (A) (A)
                 (A) (A) (A) (A) (A) (A) (A) (A) (A) (A) (A) (A)
                 (A) (A) (A) (A) (A) (A) (A) (A) (A) (A) (A) (A)
                 (A) (A) (A) (A) (A) (A) (A) (A) (A) (A) (A) (A)
                 (A) (A) (A) (A) (A) (A) (A) (A) (A) (A) (A) (A)
                 (A) (A) (A) (A) (A) (A) (A) (A) (A) (A) (A) (A)
                 (A) (A) (A) (A) (A) (A) (A) (A) (A) (A) (A) (A)
                 (A) (A) (A) (A) (A) (A) (A) (A) (A) (A) (A) (A)
                 (A) (A) (A) (A) (A) (A) (A) (A) (A) (A) (A) (A)
                 (A) (A) (A) (A) (A) (A) (A) (A) (A) (A) (A) (A)
                 (A) (A) (A) (A) (A) (A) (A) (A) (A) (A) (A) (A)
                 (A) (A) (A) (A) (A) (A) (A) (A) (A) (A) (A) (A)
                 (A) (A) (A) (A) (A) (A) (A) (A) (A) (A) (A) (A)
                 (A)
 The electronic state is 1-A.
 Alpha  occ. eigenvalues --  -19.15502 -19.13595 -19.12831 -10.28288 -10.27404
 Alpha  occ. eigenvalues --  -10.26003 -10.24647 -10.22406 -10.20975 -10.20517
 Alpha  occ. eigenvalues --  -10.20261 -10.20123 -10.19522 -10.19438  -1.07219
 Alpha  occ. eigenvalues --   -1.04553  -1.03289  -0.85563  -0.80106  -0.78890
 Alpha  occ. eigenvalues --   -0.77069  -0.72158  -0.64497  -0.64199  -0.63162
 Alpha  occ. eigenvalues --   -0.57954  -0.54730  -0.53671  -0.51905  -0.50660
 Alpha  occ. eigenvalues --   -0.49386  -0.46961  -0.45699  -0.44999  -0.44281
 Alpha  occ. eigenvalues --   -0.43293  -0.42547  -0.41819  -0.40883  -0.39455
 Alpha  occ. eigenvalues --   -0.39077  -0.38092  -0.36440  -0.35886  -0.35251
 Alpha  occ. eigenvalues --   -0.34919  -0.33675  -0.30391  -0.27598  -0.25958
 Alpha  occ. eigenvalues --   -0.24485
 Alpha virt. eigenvalues --   -0.06655  -0.03547   0.03365   0.05420   0.06369
 Alpha virt. eigenvalues --    0.07807   0.09526   0.10209   0.10848   0.11770
 Alpha virt. eigenvalues --    0.12810   0.13322   0.13663   0.15166   0.16214
 Alpha virt. eigenvalues --    0.17314   0.18204   0.19467   0.20989   0.21672
 Alpha virt. eigenvalues --    0.22228   0.24172   0.24910   0.25747   0.27469
 Alpha virt. eigenvalues --    0.29272   0.30511   0.31724   0.34702   0.35745
 Alpha virt. eigenvalues --    0.38398   0.39512   0.41680   0.44398   0.45498
 Alpha virt. eigenvalues --    0.47047   0.47930   0.49010   0.50673   0.51029
 Alpha virt. eigenvalues --    0.51718   0.54045   0.55875   0.56364   0.56772
 Alpha virt. eigenvalues --    0.57625   0.58563   0.59639   0.60657   0.61049
 Alpha virt. eigenvalues --    0.61731   0.62914   0.63569   0.64772   0.65261
 Alpha virt. eigenvalues --    0.65727   0.66066   0.66582   0.67149   0.67791
 Alpha virt. eigenvalues --    0.68197   0.68989   0.69328   0.69998   0.70564
 Alpha virt. eigenvalues --    0.70983   0.72519   0.74283   0.75245   0.76962
 Alpha virt. eigenvalues --    0.77630   0.78444   0.80447   0.82358   0.85132
 Alpha virt. eigenvalues --    0.86725   0.88014   0.89546   0.93192   0.94519
 Alpha virt. eigenvalues --    0.98924   1.01440   1.03381   1.05618   1.09364
 Alpha virt. eigenvalues --    1.10313   1.12067   1.14228   1.14949   1.16850
 Alpha virt. eigenvalues --    1.18872   1.20532   1.22548   1.26382   1.28503
 Alpha virt. eigenvalues --    1.32120   1.35041   1.37839   1.39110   1.39821
 Alpha virt. eigenvalues --    1.40116   1.41823   1.44052   1.47584   1.50813
 Alpha virt. eigenvalues --    1.54476   1.55065   1.56444   1.59743   1.61455
 Alpha virt. eigenvalues --    1.64085   1.65221   1.67341   1.69435   1.70427
 Alpha virt. eigenvalues --    1.71437   1.72462   1.73244   1.73882   1.76460
 Alpha virt. eigenvalues --    1.76796   1.77210   1.79419   1.80575   1.81124
 Alpha virt. eigenvalues --    1.81489   1.82590   1.83657   1.84804   1.85699
 Alpha virt. eigenvalues --    1.87357   1.88038   1.88849   1.90543   1.91928
 Alpha virt. eigenvalues --    1.92691   1.93419   1.94267   1.96229   1.97330
 Alpha virt. eigenvalues --    1.99965   2.01104   2.02686   2.04141   2.06425
 Alpha virt. eigenvalues --    2.07976   2.09983   2.12492   2.13410   2.14536
 Alpha virt. eigenvalues --    2.16996   2.20608   2.22517   2.23503   2.26525
 Alpha virt. eigenvalues --    2.28251   2.28845   2.31617   2.33802   2.35020
 Alpha virt. eigenvalues --    2.37258   2.39182   2.40964   2.43975   2.45979
 Alpha virt. eigenvalues --    2.47921   2.49428   2.53915   2.56965   2.57492
 Alpha virt. eigenvalues --    2.59870   2.61484   2.63292   2.65298   2.67861
 Alpha virt. eigenvalues --    2.70047   2.71611   2.71957   2.75284   2.75989
 Alpha virt. eigenvalues --    2.77917   2.83238   2.84033   2.87651   2.88966
 Alpha virt. eigenvalues --    2.91104   2.92962   2.93942   2.97354   2.98903
 Alpha virt. eigenvalues --    3.01583   3.02633   3.05729   3.06485   3.09308
 Alpha virt. eigenvalues --    3.14324   3.16072   3.17429   3.21990   3.31292
 Alpha virt. eigenvalues --    3.38125   3.40768   3.57408   3.62593   3.63927
          Condensed to atoms (all electrons):
               1          2          3          4          5          6
     1  O    7.661468   0.729371  -0.098034   0.007174  -0.000096   0.000008
     2  C    0.729371   4.880203   0.153266   0.097267   0.008592  -0.000583
     3  C   -0.098034   0.153266   5.588914   0.179509  -0.045505  -0.016722
     4  C    0.007174   0.097267   0.179509   5.615387   0.333311  -0.027408
     5  C   -0.000096   0.008592  -0.045505   0.333311   4.673546   0.372745
     6  C    0.000008  -0.000583  -0.016722  -0.027408   0.372745   4.567486
     7  C    0.000021   0.000340  -0.010129  -0.001644  -0.061009   0.413309
     8  C   -0.000011   0.002180  -0.004969   0.013652  -0.018640  -0.011675
     9  O   -0.000000  -0.000020   0.000037  -0.000113  -0.001437   0.000911
    10  C    0.000233  -0.013493  -0.003154  -0.092565   0.014790  -0.004833
    11  C    0.000362  -0.055892   0.036502  -0.059525  -0.001882   0.000661
    12  C   -0.087192   0.227627  -0.169846   0.013911  -0.001520   0.000148
    13  O    0.001438  -0.023021   0.004198  -0.056781   0.004727  -0.000092
    14  C    0.000532  -0.053056   0.012734   0.175308  -0.061988  -0.000118
    15  H    0.005329  -0.050194   0.410147  -0.056945  -0.020257   0.001556
    16  H   -0.000002   0.000746  -0.020420   0.018376   0.323226   0.004815
    17  H    0.000001  -0.000929   0.014991  -0.007887   0.336910  -0.006567
    18  H   -0.000000   0.000067  -0.000802   0.006797  -0.018274   0.355049
    19  H   -0.000003  -0.000344   0.008451  -0.011821   0.004132   0.349706
    20  H   -0.000000  -0.000028   0.000463  -0.000597   0.010624   0.002035
    21  H    0.000007   0.001761  -0.012056   0.034995  -0.027709   0.011111
    22  H   -0.000008   0.000478  -0.000598   0.011961  -0.000137  -0.000805
    23  H    0.002466   0.000027  -0.002200   0.001198   0.001177  -0.000068
    24  H   -0.000227   0.004078  -0.001357   0.001882  -0.000089  -0.000007
    25  H    0.008943  -0.020023   0.015467  -0.000106   0.000125  -0.000005
    26  H    0.000015   0.000316   0.008794  -0.036706  -0.006754  -0.000402
               7          8          9         10         11         12
     1  O    0.000021  -0.000011  -0.000000   0.000233   0.000362  -0.087192
     2  C    0.000340   0.002180  -0.000020  -0.013493  -0.055892   0.227627
     3  C   -0.010129  -0.004969   0.000037  -0.003154   0.036502  -0.169846
     4  C   -0.001644   0.013652  -0.000113  -0.092565  -0.059525   0.013911
     5  C   -0.061009  -0.018640  -0.001437   0.014790  -0.001882  -0.001520
     6  C    0.413309  -0.011675   0.000911  -0.004833   0.000661   0.000148
     7  C    4.902002   0.303714  -0.096557  -0.206735   0.013860  -0.003527
     8  C    0.303714   4.850501   0.730550   0.188110  -0.034032   0.006317
     9  O   -0.096557   0.730550   7.653084  -0.102927   0.003369  -0.000141
    10  C   -0.206735   0.188110  -0.102927   5.502754   0.251130  -0.063839
    11  C    0.013860  -0.034032   0.003369   0.251130   4.855331   0.293288
    12  C   -0.003527   0.006317  -0.000141  -0.063839   0.293288   5.116065
    13  O    0.000162   0.004581  -0.000015  -0.033233  -0.088113   0.283836
    14  C    0.004558  -0.025059   0.002628   0.287517   0.009462  -0.072584
    15  H   -0.001116   0.000334   0.000001  -0.000686  -0.001219   0.017864
    16  H    0.005970  -0.000260  -0.000002  -0.000612   0.000039  -0.000210
    17  H   -0.007918   0.006971   0.000237  -0.001834   0.000312   0.000348
    18  H   -0.014409  -0.008508   0.005569   0.000937  -0.000052  -0.000027
    19  H   -0.007639   0.006327  -0.000184  -0.000203  -0.000004   0.000074
    20  H    0.305335   0.007366   0.004150   0.015609  -0.000815   0.000115
    21  H    0.308502   0.001953   0.004523   0.004999  -0.000365  -0.001060
    22  H    0.017831   0.007515   0.011977   0.262938   0.001938  -0.004817
    23  H    0.006170  -0.015780  -0.000043   0.016421   0.332695  -0.011584
    24  H   -0.001189   0.005480   0.000045   0.016478   0.305385   0.022110
    25  H    0.000026  -0.000532   0.000002   0.004852  -0.000081   0.316496
    26  H    0.000004  -0.002189   0.000709  -0.018013   0.013737   0.002622
              13         14         15         16         17         18
     1  O    0.001438   0.000532   0.005329  -0.000002   0.000001  -0.000000
     2  C   -0.023021  -0.053056  -0.050194   0.000746  -0.000929   0.000067
     3  C    0.004198   0.012734   0.410147  -0.020420   0.014991  -0.000802
     4  C   -0.056781   0.175308  -0.056945   0.018376  -0.007887   0.006797
     5  C    0.004727  -0.061988  -0.020257   0.323226   0.336910  -0.018274
     6  C   -0.000092  -0.000118   0.001556   0.004815  -0.006567   0.355049
     7  C    0.000162   0.004558  -0.001116   0.005970  -0.007918  -0.014409
     8  C    0.004581  -0.025059   0.000334  -0.000260   0.006971  -0.008508
     9  O   -0.000015   0.002628   0.000001  -0.000002   0.000237   0.005569
    10  C   -0.033233   0.287517  -0.000686  -0.000612  -0.001834   0.000937
    11  C   -0.088113   0.009462  -0.001219   0.000039   0.000312  -0.000052
    12  C    0.283836  -0.072584   0.017864  -0.000210   0.000348  -0.000027
    13  O    7.987256   0.294731  -0.000840  -0.000191   0.000203   0.000005
    14  C    0.294731   4.882821   0.009194   0.009102  -0.011514   0.000121
    15  H   -0.000840   0.009194   0.695881   0.004619   0.000283  -0.000062
    16  H   -0.000191   0.009102   0.004619   0.670195  -0.027645   0.003436
    17  H    0.000203  -0.011514   0.000283  -0.027645   0.696705  -0.019507
    18  H    0.000005   0.000121  -0.000062   0.003436  -0.019507   0.694382
    19  H    0.000004  -0.001021   0.000062  -0.020215   0.007803  -0.026389
    20  H    0.000003   0.000114  -0.000040  -0.000397  -0.000071  -0.008631
    21  H    0.000003  -0.007536   0.001457   0.001137  -0.000519   0.009449
    22  H    0.002520  -0.004340   0.000027   0.000023  -0.000056  -0.000051
    23  H    0.004404  -0.011899  -0.000630  -0.000024  -0.000021  -0.000022
    24  H    0.002332  -0.000535   0.000047   0.000001   0.000002   0.000004
    25  H   -0.018012   0.003953  -0.000539  -0.000001   0.000000  -0.000000
    26  H   -0.021726   0.371648  -0.000343  -0.000123   0.008044  -0.000083
              19         20         21         22         23         24
     1  O   -0.000003  -0.000000   0.000007  -0.000008   0.002466  -0.000227
     2  C   -0.000344  -0.000028   0.001761   0.000478   0.000027   0.004078
     3  C    0.008451   0.000463  -0.012056  -0.000598  -0.002200  -0.001357
     4  C   -0.011821  -0.000597   0.034995   0.011961   0.001198   0.001882
     5  C    0.004132   0.010624  -0.027709  -0.000137   0.001177  -0.000089
     6  C    0.349706   0.002035   0.011111  -0.000805  -0.000068  -0.000007
     7  C   -0.007639   0.305335   0.308502   0.017831   0.006170  -0.001189
     8  C    0.006327   0.007366   0.001953   0.007515  -0.015780   0.005480
     9  O   -0.000184   0.004150   0.004523   0.011977  -0.000043   0.000045
    10  C   -0.000203   0.015609   0.004999   0.262938   0.016421   0.016478
    11  C   -0.000004  -0.000815  -0.000365   0.001938   0.332695   0.305385
    12  C    0.000074   0.000115  -0.001060  -0.004817  -0.011584   0.022110
    13  O    0.000004   0.000003   0.000003   0.002520   0.004404   0.002332
    14  C   -0.001021   0.000114  -0.007536  -0.004340  -0.011899  -0.000535
    15  H    0.000062  -0.000040   0.001457   0.000027  -0.000630   0.000047
    16  H   -0.020215  -0.000397   0.001137   0.000023  -0.000024   0.000001
    17  H    0.007803  -0.000071  -0.000519  -0.000056  -0.000021   0.000002
    18  H   -0.026389  -0.008631   0.009449  -0.000051  -0.000022   0.000004
    19  H    0.685241  -0.004997  -0.015404   0.000031   0.000053  -0.000000
    20  H   -0.004997   0.674797  -0.023346  -0.000665  -0.000582   0.000011
    21  H   -0.015404  -0.023346   0.694886  -0.000468   0.003023   0.000181
    22  H    0.000031  -0.000665  -0.000468   0.709715   0.005653  -0.018395
    23  H    0.000053  -0.000582   0.003023   0.005653   0.655097  -0.018772
    24  H   -0.000000   0.000011   0.000181  -0.018395  -0.018772   0.666422
    25  H    0.000000  -0.000000  -0.000028   0.000195   0.005464  -0.016121
    26  H    0.000014   0.000008  -0.000136  -0.012793  -0.000490  -0.000208
              25         26
     1  O    0.008943   0.000015
     2  C   -0.020023   0.000316
     3  C    0.015467   0.008794
     4  C   -0.000106  -0.036706
     5  C    0.000125  -0.006754
     6  C   -0.000005  -0.000402
     7  C    0.000026   0.000004
     8  C   -0.000532  -0.002189
     9  O    0.000002   0.000709
    10  C    0.004852  -0.018013
    11  C   -0.000081   0.013737
    12  C    0.316496   0.002622
    13  O   -0.018012  -0.021726
    14  C    0.003953   0.371648
    15  H   -0.000539  -0.000343
    16  H   -0.000001  -0.000123
    17  H    0.000000   0.008044
    18  H   -0.000000  -0.000083
    19  H    0.000000   0.000014
    20  H   -0.000000   0.000008
    21  H   -0.000028  -0.000136
    22  H    0.000195  -0.012793
    23  H    0.005464  -0.000490
    24  H   -0.016121  -0.000208
    25  H    0.695646  -0.000359
    26  H   -0.000359   0.669493
 Mulliken charges:
               1
     1  O   -0.231796
     2  C    0.111264
     3  C   -0.047684
     4  C   -0.158630
     5  C    0.181390
     6  C   -0.010257
     7  C    0.130070
     8  C   -0.013898
     9  O   -0.216352
    10  C   -0.024640
    11  C    0.123907
    12  C    0.115524
    13  O   -0.348378
    14  C    0.185226
    15  H   -0.013926
    16  H    0.028417
    17  H    0.011658
    18  H    0.021001
    19  H    0.026326
    20  H    0.019538
    21  H    0.010640
    22  H    0.010329
    23  H    0.028266
    24  H    0.032445
    25  H    0.004638
    26  H    0.024922
 Sum of Mulliken charges =  -0.00000
 Mulliken charges with hydrogens summed into heavy atoms:
               1
     1  O   -0.231796
     2  C    0.111264
     3  C   -0.061611
     4  C   -0.158630
     5  C    0.221466
     6  C    0.037070
     7  C    0.160248
     8  C   -0.013898
     9  O   -0.216352
    10  C   -0.014311
    11  C    0.184619
    12  C    0.120162
    13  O   -0.348378
    14  C    0.210148
 APT charges:
               1
     1  O    0.754437
     2  C   -0.887245
     3  C   -0.511597
     4  C   -0.357987
     5  C   -0.462834
     6  C   -0.730134
     7  C   -0.437986
     8  C   -1.102978
     9  O    0.717750
    10  C   -0.466785
    11  C   -0.413557
    12  C   -0.474181
    13  O   -0.129950
    14  C   -0.360808
    15  H    0.422360
    16  H    0.501211
    17  H    0.320693
    18  H    0.482993
    19  H    0.418426
    20  H    0.555644
    21  H    0.037898
    22  H    0.418241
    23  H    0.150384
    24  H    0.544442
    25  H    0.575077
    26  H    0.436485
 Sum of APT charges =  -0.00000
 APT charges with hydrogens summed into heavy atoms:
               1
     1  O    0.754437
     2  C   -0.887245
     3  C   -0.089236
     4  C   -0.357987
     5  C    0.359071
     6  C    0.171285
     7  C    0.155556
     8  C   -1.102978
     9  O    0.717750
    10  C   -0.048544
    11  C    0.281269
    12  C    0.100895
    13  O   -0.129950
    14  C    0.075678
 Electronic spatial extent (au):  <R**2>=           2220.5102
 Charge=             -0.0000 electrons
 Dipole moment (field-independent basis, Debye):
    X=              2.5245    Y=              1.3794    Z=              0.4086  Tot=              2.9056
 Quadrupole moment (field-independent basis, Debye-Ang):
   XX=           -102.1746   YY=            -78.4501   ZZ=            -81.6497
   XY=             13.1244   XZ=             -1.8733   YZ=              3.1733
 Traceless Quadrupole moment (field-independent basis, Debye-Ang):
   XX=            -14.7498   YY=              8.9747   ZZ=              5.7751
   XY=             13.1244   XZ=             -1.8733   YZ=              3.1733
 Octapole moment (field-independent basis, Debye-Ang**2):
  XXX=             10.0793  YYY=              2.7316  ZZZ=              0.3409  XYY=             -8.2551
  XXY=              6.1424  XXZ=             16.9882  XZZ=             18.0260  YZZ=             -2.6611
  YYZ=             -0.9538  XYZ=             -9.8325
 Hexadecapole moment (field-independent basis, Debye-Ang**3):
 XXXX=          -1783.0011 YYYY=           -787.0066 ZZZZ=           -441.5633 XXXY=            115.7844
 XXXZ=            -57.9174 YYYX=             18.9977 YYYZ=             -2.3923 ZZZX=              4.0705
 ZZZY=             -1.9645 XXYY=           -432.1832 XXZZ=           -359.9973 YYZZ=           -215.5582
 XXYZ=             17.7077 YYXZ=              4.1498 ZZXY=             -1.0012
 N-N= 9.478315342869D+02 E-N=-3.412365835393D+03  KE= 6.455397614650D+02
  Exact polarizability:   0.000   0.000   0.000   0.000   0.000   0.000
 Approx polarizability: 209.598 -13.678 156.862  32.843  -9.837 153.287
 No NMR shielding tensors so no spin-rotation constants.
 Leave Link  601 at Sat Jan 24 10:07:16 2026, MaxMem=  4294967296 cpu:               1.4 elap:               0.1
 (Enter /root/g16/l701.exe)
 ... and contract with generalized density number  0.
 Compute integral second derivatives.
 R6Disp: Adding Grimme-D3(BJ) dispersion energy 2nd derivatives to the Hessian.
   1 Symmetry operations used in ECPInt.
 ECPInt:  NShTT=    7260 NPrTT=   26324 LenC2=    7137 LenP2D=   20012.
 LDataN:  DoStor=T MaxTD1= 6 Len=  172
 D2PCM: PCM CHGder 2nd derivatives, FixD1E=F FixD2E=F DoIter=F DoCFld=F I1PDM=0
 GePol: Maximum number of non-zero 2nd derivatives   =     229
 Leave Link  701 at Sat Jan 24 10:07:18 2026, MaxMem=  4294967296 cpu:              37.0 elap:               2.2
 (Enter /root/g16/l702.exe)
 L702 exits ... SP integral derivatives will be done elsewhere.
 Leave Link  702 at Sat Jan 24 10:07:18 2026, MaxMem=  4294967296 cpu:               0.1 elap:               0.0
 (Enter /root/g16/l703.exe)
 Integral derivatives from FoFJK, PRISM(SPDF).
 Compute integral second derivatives, UseDBF=F ICtDFT=           0.
 Calling FoFJK, ICntrl=    100147 FMM=F ISym2X=0 I1Cent= 0 IOpClX= 0 NMat=1 NMatS=1 NMatT=0.
 FoFJK:  IHMeth= 1 ICntrl=  100147 DoSepK=F KAlg= 0 I1Cent=           0 FoldK=F
 IRaf=         0 NMat=       1 IRICut=       1 DoRegI=T DoRafI=F ISym2E= 0 IDoP0=0 IntGTp=1.
 FoFCou: FMM=F IPFlag=           0 FMFlag=      100000 FMFlg1=         800
         NFxFlg=           0 DoJE=F BraDBF=F KetDBF=F FulRan=T
         wScrn=  0.000000 ICntrl=    100147 IOpCl=  0 I1Cent=           0 NGrid=           0
         NMat0=    1 NMatS0=      1 NMatT0=    0 NMatD0=    1 NMtDS0=    0 NMtDT0=    0
 Symmetry not used in FoFCou.
 Leave Link  703 at Sat Jan 24 10:07:52 2026, MaxMem=  4294967296 cpu:             533.7 elap:              33.4
 (Enter /root/g16/l716.exe)
 Dipole        = 9.93196999D-01 5.42691803D-01 1.60762423D-01
 Polarizability= 0.00000000D+00 0.00000000D+00 0.00000000D+00
                 0.00000000D+00 0.00000000D+00 0.00000000D+00
 ***** Axes restored to original set *****
 -------------------------------------------------------------------
 Center     Atomic                   Forces (Hartrees/Bohr)
 Number     Number              X              Y              Z
 -------------------------------------------------------------------
      1        8           0.005723229    0.001389488    0.005090023
      2        6           0.000542728   -0.004330562   -0.006610673
      3        6           0.004700572    0.004548929   -0.000526129
      4        6          -0.001917722    0.005857662   -0.009518630
      5        6           0.001192634   -0.002885972    0.004508189
      6        6           0.004132447   -0.003308263   -0.000705495
      7        6          -0.007530393    0.001594128   -0.001939834
      8        6           0.009183647   -0.001785431    0.003540417
      9        8          -0.009822607   -0.005251952   -0.002631478
     10        6          -0.000731800   -0.001263733   -0.005397587
     11        6           0.001987921    0.003155084   -0.002475107
     12        6           0.004231118   -0.002426995    0.005379210
     13        8           0.001070010    0.000513002   -0.002873628
     14        6          -0.000512939   -0.002448191    0.000264812
     15        1          -0.002036882    0.006922305    0.006580304
     16        1          -0.000273232    0.006499741   -0.000596381
     17        1          -0.002653378    0.000399729   -0.005716740
     18        1          -0.006748565   -0.000284135   -0.000667149
     19        1          -0.001426766    0.004292496    0.004723022
     20        1          -0.002152083   -0.003319211    0.003824654
     21        1           0.003567022    0.000061117    0.003384485
     22        1          -0.002084725   -0.001514908   -0.001908651
     23        1          -0.000604405   -0.000909601    0.006458096
     24        1           0.001463672   -0.006003584    0.000027631
     25        1           0.004660252   -0.000734698    0.000938643
     26        1          -0.003959756    0.001233556   -0.003152004
 -------------------------------------------------------------------
 Cartesian Forces:  Max     0.009822607 RMS     0.003971934
 FormGI is forming the generalized inverse of G from B-inverse, IUseBI=4.
 Leave Link  716 at Sat Jan 24 10:07:52 2026, MaxMem=  4294967296 cpu:               0.2 elap:               0.0
 (Enter /root/g16/l103.exe)

 GradGradGradGradGradGradGradGradGradGradGradGradGradGradGradGradGradGrad
 Berny optimization.
 Red2BG is reusing G-inverse.
 Internal  Forces:  Max     0.011517155 RMS     0.002963674
 Search for a local minimum.
 Step number   1 out of a maximum of  156
[...]
 0.00339140,0.00078848,-0.00078375,-0.00167311,-0.00010075,0.00076693,0
 .00017280,-0.00002489,-0.00029005,-0.00006976,-0.00000192,0.00002439,0
 .00007136,0.00002312,-0.00008852,0.00002601,-0.00002237,0.00017702,0.0
 0026815,0.00022932,-0.00013777,-0.00044049,-0.00006966,-0.00012453,0.0
 0010819,0.00097514,0.00054570,-0.00037881,0.00039072,-0.00001407,0.000
 10368,0.00832561,-0.00479592,-0.00363132,0.22741904,-0.00056837,0.0000
 9976,0.00001975,0.00081942,-0.00040602,-0.00072895,-0.00119123,0.00122
 683,-0.00020567,-0.00207977,-0.00370153,0.00129082,-0.02109608,0.00949
 199,0.00902937,0.10572459,-0.10812931,-0.05223806,0.01712580,-0.014358
 68,-0.00723677,0.00027084,0.00105078,0.00522072,-0.00026899,-0.0023072
 4,-0.00102325,-0.00021166,0.00016539,-0.00038442,-0.00027033,0.0000595
 3,-0.00003692,0.00001103,-0.00011573,0.00003826,0.00022342,0.00031416,
 0.00013899,-0.00009532,-0.00038477,-0.00030145,-0.00004962,-0.00014330
 ,0.00012141,0.00012223,0.00123106,0.00004703,0.00076631,0.00043574,-0.
 00007988,0.00983552,-0.00624279,-0.00483319,-0.10919270,0.12072538,0.0
 0023264,-0.00003675,0.00006936,-0.00029136,0.00017770,0.00008395,0.000
 39694,-0.00024501,-0.00018057,-0.00002177,0.00084666,0.00037784,0.0025
 9370,-0.00331747,-0.00160554,0.08373846,-0.05253387,-0.08656201,-0.017
 93181,0.01452117,0.00777387,-0.00115660,-0.00011613,-0.00409253,0.0004
 6364,0.00199585,0.00071078,0.00008166,0.00023339,0.00030293,0.00007189
 ,-0.00008885,0.00001415,0.00001657,0.00009232,-0.00011743,0.00016993,-
 0.00020015,0.00019456,-0.00041550,0.00042345,-0.00014860,0.00000170,0.
 00001158,0.00000821,-0.00048369,0.00038476,0.00102225,-0.00006405,-0.0
 0015732,-0.00015361,0.02128933,-0.01268354,-0.01030542,-0.08861561,0.0
 5143351,0.09067870,-0.00016923,-0.00001068,-0.00011980,0.00025994,-0.0
 0001726,0.00013906,0.00007541,-0.00010664,0.00027451,-0.00034866,0.000
 19385,-0.00011228,0.00005411,0.00141777,-0.00146788,0.00969454,0.00550
 205,-0.00576646,-0.22044339,-0.07661407,0.10680010,-0.01409419,-0.0069
 4923,0.00824814,0.00280304,-0.00076832,-0.00241645,0.00104500,0.002334
 84,0.00096845,0.00032927,0.00002728,0.00002504,0.00006862,-0.00003111,
 -0.00003325,-0.00017974,-0.00014932,0.00005708,0.00027541,0.00022216,-
 0.00038986,-0.00000068,0.00000723,-0.00002546,-0.00000657,0.00006232,0
 .00000528,0.00028452,0.00039942,-0.00018158,-0.00005286,-0.00038799,0.
 00004104,0.00135602,-0.00002335,-0.00005113,0.23371193,-0.00019217,0.0
 0007846,-0.00002583,0.00030630,-0.00029911,-0.00012008,-0.00027961,0.0
 0028764,0.00007018,0.00101198,-0.00050643,-0.00007318,0.00143103,-0.00
 176061,0.00388865,-0.01623234,-0.00916672,0.00844630,-0.08027309,-0.07
 950468,0.05087804,0.02455488,0.00635259,-0.01473266,-0.00100224,0.0019
 7611,0.00015852,0.00032447,-0.00394977,-0.00158405,-0.00008332,0.00003
 902,-0.00013056,0.00001722,-0.00005102,0.00004825,0.00000404,0.0001897
 9,0.00004170,-0.00026700,-0.00022947,0.00017331,0.00000922,0.00000559,
 0.00002175,0.00003702,0.00014164,-0.00013508,-0.00096146,-0.00096462,0
 .00037240,0.00010140,0.00013280,0.00033746,-0.00054563,0.00051593,-0.0
 0016864,0.07999784,0.09031480,0.00010529,0.00002459,0.00004343,-0.0000
 8703,-0.00002903,-0.00002317,0.00024530,-0.00012101,0.00033649,-0.0009
 5875,-0.00019524,-0.00007659,-0.00169129,0.00102050,-0.00195786,0.0145
 8200,0.00655806,-0.00776248,0.10564778,0.04853839,-0.11104397,0.016469
 71,0.00350888,-0.01104807,-0.00348947,0.00260057,0.00104183,0.00065525
 ,-0.00235631,0.00032824,0.00024931,-0.00000939,-0.00033320,0.00001667,
 -0.00004716,-0.00000807,0.00018998,0.00002953,-0.00004238,-0.00036349,
 -0.00010677,0.00028090,0.00001352,0.00002948,0.00000929,0.00007497,0.0
 0017924,0.00003204,0.00059809,0.00063482,-0.00004430,-0.00007821,-0.00
 019023,-0.00030402,-0.00000655,-0.00043037,0.00123088,-0.11564257,-0.0
 5290676,0.11816634,0.00027216,-0.00001332,0.00007796,-0.00040718,0.000
 11695,0.00008481,0.00000113,-0.00037168,0.00024537,-0.00016323,-0.0005
 0853,0.00085729,0.00013470,-0.00078017,0.00140656,-0.00394481,-0.00343
 638,-0.00626386,-0.14655975,-0.06078747,-0.10656071,0.01328701,0.00308
 229,0.01075998,-0.00147925,0.00212232,-0.00197575,-0.00206143,-0.00083
 615,-0.00199337,-0.00018282,0.00007082,0.00057167,-0.00021686,0.000179
 10,-0.00004438,0.00011396,-0.00005583,-0.00004835,-0.00006015,0.000147
 25,0.00019280,0.00001446,0.00001646,-0.00000836,0.00029845,0.00028753,
 -0.00011803,-0.00012238,0.00005010,-0.00000204,-0.00016440,0.00129120,
 -0.00037147,-0.00016670,-0.00000344,0.00007159,-0.01404480,-0.00883056
 ,-0.01709084,0.15567659,0.00007132,-0.00000499,0.00003148,-0.00005355,
 0.00001935,-0.00002283,-0.00006372,-0.00004017,0.00031343,-0.00073875,
 -0.00019747,0.00045846,-0.00005028,0.00173023,0.00054535,0.01447496,0.
 00885436,0.01909131,-0.06608248,-0.08145329,-0.07520860,-0.02010203,-0
 .01038765,-0.01522606,0.00515712,-0.00313253,0.00146001,0.00194503,0.0
 0038393,0.00151564,0.00018766,-0.00001137,-0.00053925,0.00011587,-0.00
 002685,0.00000111,0.00009260,-0.00004276,-0.00005502,0.00005424,-0.000
 05306,0.00014432,-0.00001348,0.00000061,-0.00000511,0.00017511,-0.0003
 0383,-0.00042833,0.00024487,0.00021939,-0.00021982,0.00148684,-0.00325
 374,0.00289289,-0.00007833,0.00037784,-0.00047563,-0.00500836,-0.00374
 535,-0.00660687,0.06825675,0.09103666,-0.00036936,0.00007564,-0.000149
 36,0.00067087,-0.00037951,0.00002247,-0.00002524,0.00013656,0.00034966
 ,0.00015895,-0.00003934,-0.00040899,-0.00043347,-0.00094780,0.00116349
 ,-0.01212114,-0.00558839,-0.01678316,-0.10891469,-0.06994256,-0.160581
 36,-0.00994226,-0.00493226,-0.00933031,0.00118758,-0.00045106,0.000270
 10,0.00153800,0.00011355,0.00115985,0.00015121,0.00005142,-0.00037430,
 0.00009597,-0.00006991,0.00001305,-0.00000757,0.00010427,0.00009669,-0
 .00013872,-0.00016630,-0.00027145,0.00001647,0.00004737,-0.00000621,0.
 00030186,0.00046128,-0.00015198,-0.00018444,-0.00024579,0.00031837,-0.
 00156043,0.00342979,-0.00166971,0.00004959,0.00013193,0.00023645,0.009
 16585,0.00614180,0.01136466,0.12049080,0.07210996,0.17421475,-0.000195
 88,-0.00014467,-0.00016804,0.00006044,0.00058913,0.00015868,0.00016644
 ,0.00023581,-0.00002092,0.00043503,-0.00002145,0.00018369,-0.00000916,
 -0.00019577,-0.00007198,0.00003840,-0.00004982,0.00006163,-0.00350114,
 -0.00180496,0.00113036,0.00056487,0.01719068,0.02123444,0.00085663,0.0
 0097673,-0.00255765,-0.04730066,-0.03446852,-0.02893695,-0.00861694,-0
 .01573489,-0.02110725,-0.00081516,0.00040572,-0.00147202,0.00110444,-0
 .00029636,0.00088561,-0.00063322,-0.00103496,-0.00152991,0.00000546,-0
 .00007000,0.00010189,0.00002731,-0.00000513,-0.00000619,0.00003988,0.0
 0002263,-0.00001634,-0.00002682,0.00008420,-0.00006966,0.00001796,0.00
 008373,-0.00006282,-0.00064427,0.00082262,0.00038744,0.00040869,-0.000
 26765,-0.00024960,0.06041293,-0.00092711,0.00025216,-0.00029292,0.0014
 7220,-0.00124006,0.00020119,-0.00085233,-0.00013667,-0.00047338,-0.001
 46733,-0.00212343,0.00455495,-0.00023957,0.00007505,-0.00034881,-0.000
 19623,-0.00001016,-0.00005547,0.00011184,0.00042222,0.00016462,0.00216
 511,0.00019412,-0.00028990,-0.00169104,0.00008960,0.00229678,-0.036867
 84,-0.17605006,-0.13418297,0.00471757,0.00469637,0.00678254,-0.0000325
 7,-0.00018749,0.00013785,0.00116901,0.00270386,-0.00000885,-0.00367410
 ,-0.02450445,-0.01722668,-0.00000053,0.00028368,-0.00053031,0.00016274
 ,-0.00004615,-0.00011377,-0.00000846,0.00003216,0.00002641,0.00003269,
 0.00003617,0.00004454,0.00006616,0.00006414,-0.00002016,-0.00000368,0.
 00005240,-0.00016306,-0.00014480,0.00000219,0.00003260,0.03423889,0.19
 249485,0.00050274,-0.00017702,0.00017888,-0.00075447,0.00088090,-0.000
 09197,0.00073510,0.00016436,0.00082087,0.00139264,0.00145573,-0.002243
 89,0.00014556,-0.00009803,0.00018926,0.00001829,0.00011428,-0.00023389
 ,0.00256396,0.00193174,-0.00098681,-0.00264466,-0.01750298,-0.01623941
 ,-0.00000510,0.00120815,0.00315014,-0.03012610,-0.13413167,-0.17826571
 ,-0.00438456,-0.00624567,-0.00890583,-0.00006555,0.00027542,-0.0006904
 0,-0.00140501,-0.00040920,0.00066101,0.00332302,0.01563398,0.00957185,
 0.00001201,-0.00018291,0.00034687,-0.00007255,0.00000302,0.00006713,-0
 .00000226,-0.00005305,0.00000372,0.00001510,-0.00006509,0.00006225,-0.
 00002621,-0.00013013,0.00010446,0.00051692,-0.00073282,-0.00028442,-0.
 00031100,0.00026377,0.00016816,0.03270591,0.13813684,0.19023671,-0.000
 41623,0.00034165,-0.00040087,0.00192528,-0.00037079,0.00100076,-0.0004
 7225,0.00012161,-0.00001252,0.00032721,0.00030433,0.00006020,0.0000334
 5,-0.00001628,-0.00002277,0.00003647,0.00007265,-0.00012926,-0.0005019
 5,-0.00013004,-0.00027992,0.00114728,0.00002962,-0.00228645,0.00008017
 ,-0.00045764,0.00057395,-0.00171971,-0.00585302,-0.02645054,-0.0458651
 2,0.00035609,-0.00154235,0.00096519,0.00441225,0.01699747,-0.00089445,
 -0.00265458,0.00245969,-0.00185313,-0.00004216,-0.00075607,0.00005425,
 -0.00007687,0.00003866,0.00000391,-0.00000536,0.00000361,-0.00000374,-
 0.00002323,-0.00000429,0.00002852,-0.00000664,0.00005222,0.00002266,-0
 .00002760,0.00004057,0.00008068,0.00001267,0.00007927,-0.00048884,0.00
 013939,0.00013164,-0.00388538,0.00148158,-0.00224585,0.05177608,0.0002
 1770,0.00007257,0.00010446,-0.00056393,-0.00066500,0.00146731,-0.00006
 695,-0.00044958,0.00012862,0.00026895,0.00004932,-0.00001920,-0.000094
 91,-0.00006514,-0.00012744,0.00000870,0.00003258,0.00005022,-0.0002029
 3,-0.00015068,0.00014672,-0.00017587,0.00128168,-0.00020322,0.00020122
 ,-0.00027967,0.00013880,-0.00177235,-0.00025995,0.00424198,0.00034594,
 -0.05366155,-0.04405398,0.00213932,0.00412351,0.01825982,0.00009791,-0
 .00457999,0.00471792,-0.00112477,0.00010011,0.00116507,-0.00000152,0.0
 0009224,-0.00003333,0.00001395,-0.00000970,0.00000400,-0.00004281,0.00
 002944,0.00001728,-0.00001173,-0.00000672,-0.00001513,-0.00002520,-0.0
 0000382,-0.00000915,-0.00009787,0.00005044,0.00000207,0.00031051,-0.00
 004849,-0.00017508,-0.00038366,0.00039628,0.00005778,0.00191859,0.0570
 8860,0.00077331,0.00009780,0.00092316,-0.00135902,-0.00091712,-0.00148
 012,0.00060162,0.00010173,0.00056518,-0.00053528,-0.00044883,-0.000291
 28,0.00007858,0.00003826,0.00009100,-0.00000690,-0.00002210,0.00000335
 ,-0.00048229,-0.00025330,0.00001185,0.00128239,0.00147823,-0.00075021,
 -0.00018094,-0.00082885,0.00061253,-0.00079149,-0.00203664,-0.00525249
 ,-0.00220389,-0.04154349,-0.31140336,-0.00077317,-0.00212575,-0.007913
 20,-0.00015715,0.00256839,-0.00166600,0.00104800,-0.00031672,-0.000722
 83,-0.00001629,0.00007591,0.00000198,-0.00001870,0.00002493,0.00000373
 ,0.00005012,-0.00002244,-0.00000010,0.00004267,-0.00001344,0.00002835,
 0.00001911,0.00002288,0.00000365,-0.00006704,0.00006965,0.00004551,0.0
 0011839,-0.00006738,0.00011487,-0.00093619,0.00073509,-0.00002621,0.00
 325064,0.04265203,0.33224274,-0.00061494,-0.00046069,-0.00140301,-0.00
 148842,0.00008933,0.00405905,0.00103845,-0.00008849,-0.00033568,-0.000
 48544,-0.00094717,-0.00080036,0.00000984,-0.00015204,0.00019610,-0.000
 02220,-0.00018802,0.00004753,0.00026117,0.00017762,0.00072771,0.000879
 78,0.00230769,-0.00256638,-0.00010256,-0.00147628,0.00020335,-0.012084
 39,0.02499672,0.00255700,-0.06418701,0.07790275,0.01762506,0.00235412,
 -0.02262140,-0.00496308,0.00174250,0.00017690,0.00093936,-0.00497185,0
 .00024163,-0.00033966,0.00017897,-0.00002898,-0.00008766,-0.00001324,0
 .00001705,0.00001597,0.00008930,-0.00002500,-0.00000388,0.00007434,-0.
 00001704,0.00000771,0.00000449,0.00004271,0.00001381,-0.00003621,0.000
 02085,0.00007432,-0.00014052,0.00006666,0.00004611,0.00150753,0.000064
 32,0.00043830,0.00039742,-0.00038120,-0.00000979,0.07433373,-0.0004893
 7,-0.00065942,-0.00115900,-0.00160349,0.00104638,0.00342692,0.00056141
 ,0.00006720,-0.00013408,-0.00024957,0.00015241,-0.00012351,0.00004027,
 -0.00007761,0.00017134,-0.00005850,-0.00007023,-0.00002144,0.00009454,
 0.00009865,0.00010146,0.00004394,-0.00003847,0.00048512,-0.00004155,0.
 00004961,-0.00022188,-0.00114679,0.00011387,-0.00096004,0.07865109,-0.
 29382210,-0.05131655,0.00328475,-0.01671881,-0.00541398,0.00130071,0.0
 0016125,0.00115337,-0.00067798,0.00000032,0.00051658,0.00008124,-0.000
 03372,-0.00008998,0.00001673,-0.00001308,-0.00001774,0.00007013,-0.000
 01837,-0.00002970,-0.00000823,0.00000823,0.00000404,0.00002234,0.00001
 541,-0.00000458,0.00001855,-0.00000632,-0.00001470,-0.00006093,0.00002
 657,0.00002872,-0.00035290,0.00134869,-0.00002820,0.00083079,-0.002452
 09,-0.00028128,-0.08055556,0.30957894,0.00060631,0.00017748,0.00097056
 ,0.00046909,0.00054216,-0.00228102,0.00017681,-0.00032691,0.00066393,-
 0.00035669,-0.00048427,-0.00056934,-0.00000974,0.00006019,-0.00004467,
 0.00004029,-0.00003245,-0.00000050,-0.00011719,-0.00007445,0.00009391,
 -0.00050391,0.00045704,-0.00061456,-0.00007622,-0.00000740,0.00004143,
 -0.00579908,0.01128747,0.00080488,0.01795849,-0.05422585,-0.05677632,-
 0.00391202,0.01575212,0.00398644,-0.00006924,-0.00055728,-0.00086355,-
 0.00167171,0.00139239,-0.00108137,-0.00002464,0.00005468,0.00000067,-0
 .00000703,0.00000416,0.00000987,-0.00000281,-0.00000577,0.00002342,0.0
 0003218,-0.00001036,0.00001769,0.00000463,0.00000432,0.00001941,-0.000
 00666,0.00001553,0.00004902,-0.00007357,0.00008916,0.00008669,-0.00029
 501,0.00100201,0.00113705,0.00931360,-0.02902430,-0.00470066,-0.015361
 30,0.05391171,0.05880231,0.00159719,0.00025960,0.00097660,0.00387302,-
 0.00324237,-0.00263229,0.00014175,-0.00099271,-0.00065673,-0.00025306,
 -0.00027443,-0.00010708,0.00001190,0.00000565,0.00022782,0.00000452,0.
 00001657,0.00001731,-0.00000515,0.00001680,0.00007129,0.00023551,-0.00
 001536,-0.00068657,-0.00027470,-0.00023681,0.00030966,-0.00086138,0.00
 000064,0.00062272,-0.00821580,0.00441806,0.00459947,-0.25693526,0.0919
 2381,0.07574971,-0.01711139,0.00583931,-0.00091861,0.00101390,0.001248
 03,-0.00284565,0.00026229,-0.00018605,0.00007887,-0.00006224,0.0000571
 6,0.00004706,0.00002287,-0.00001743,-0.00000820,0.00003972,-0.00000567
 ,0.00000617,-0.00001942,0.00000902,0.00001066,-0.00002317,0.00000840,0
 .00002208,0.00000829,0.00001131,-0.00000552,-0.00008454,-0.00001294,-0
 .00004928,-0.00105891,-0.00065667,0.00033250,0.00088768,0.00023439,-0.
 00045216,0.27753096,-0.00178798,0.00274684,0.00334099,0.02502207,-0.01
 046980,-0.00942437,-0.00163659,-0.00339196,-0.00264517,-0.00054440,0.0
 0032779,-0.00034304,0.00004364,0.00012365,0.00001404,0.00002162,-0.000
 13492,0.00008157,0.00005332,0.00009197,0.00022482,0.00014589,0.0001918
 1,-0.00120572,-0.00021905,-0.00033085,0.00031765,-0.00329903,-0.000995
 40,0.00152014,-0.01801520,0.00765401,0.00622587,0.09081855,-0.08565433
 ,-0.03453193,0.00925305,-0.00232103,0.00083503,-0.00152693,-0.00082044
 ,0.00189334,0.00083745,-0.00090621,0.00025330,-0.00002155,-0.00001141,
 -0.00001380,0.00004701,-0.00001118,0.00001269,0.00001873,-0.00000038,-
 0.00002070,0.00002806,0.00004569,-0.00002085,-0.00000627,0.00003012,0.
 00001824,-0.00006504,0.00002568,0.00004130,-0.00014001,0.00004468,-0.0
 0009312,-0.00082623,-0.00046790,0.00078022,0.00015502,0.00144665,-0.00
 036893,-0.09865654,0.09268469,-0.00115893,0.00202578,0.00131584,0.0177
 0749,-0.00602287,-0.00282404,-0.00103155,-0.00297152,-0.00146277,-0.00
 101366,-0.00019024,-0.00039385,0.00016009,0.00022020,0.00020259,-0.000
 02000,-0.00000272,-0.00007250,-0.00003111,-0.00003818,-0.00016677,0.00
 004593,-0.00022802,0.00066744,0.00004613,0.00012475,-0.00013807,0.0011
 2268,0.00091403,-0.00152362,0.01048183,-0.00465946,-0.00135541,0.08452
 839,-0.03765722,-0.07843861,-0.03300764,0.01263884,0.00714871,-0.00197
 100,0.00250396,-0.00493477,0.00071320,-0.00058461,0.00017384,-0.000079
 87,0.00006228,0.00002840,0.00005186,-0.00004916,-0.00001178,0.00004201
 ,0.00002442,0.00003398,0.00003213,0.00002138,0.00002675,0.00001104,-0.
 00000820,-0.00001481,0.00001992,-0.00000938,0.00000788,0.00011021,0.00
 005028,0.00004970,0.00030148,0.00047585,-0.00038271,-0.00065028,-0.000
 10386,0.00052993,-0.07502774,0.03333655,0.08093007,-0.00022363,-0.0007
 0271,-0.00037622,-0.00018342,0.00146964,0.00055358,0.00136134,0.000866
 40,0.00023862,0.00183806,-0.00196044,-0.00124625,0.00002697,-0.0000671
 9,0.00087329,-0.00021811,0.00005734,0.00032937,0.00003561,-0.00001264,
 0.00005249,-0.00010444,0.00020118,-0.00000398,0.00008667,0.00003727,-0
 .00017587,0.00711690,-0.00138529,0.00607900,-0.00071920,-0.00190568,0.
 00113478,-0.00401900,-0.00085030,0.00381528,-0.02859468,0.00839236,-0.
 02227616,-0.14480839,0.02125288,-0.12426567,0.00021786,0.00006362,-0.0
 0012063,-0.00005136,-0.00015419,-0.00000047,0.00026670,-0.00017478,-0.
 00001206,-0.00075652,0.00022172,0.00073396,0.00001907,0.00004385,-0.00
 009876,0.00000528,0.00000749,-0.00000278,-0.00001232,-0.00002110,-0.00
 005244,0.00006717,0.00043642,-0.00027694,0.00028115,0.00007958,-0.0000
 5919,0.00038745,-0.00000602,0.00013757,-0.00072459,0.00030041,-0.00138
 262,0.16870545,-0.00032586,0.00031363,0.00017219,0.00138772,-0.0002903
 0,-0.00049257,0.00119408,-0.00331612,-0.00180089,-0.01631618,0.0026484
 6,-0.02250071,-0.00049598,0.00100580,0.00041076,0.00030751,0.00006520,
 0.00005587,-0.00007980,0.00000290,0.00023225,0.00118584,-0.00025671,-0
 .00011507,-0.00057247,-0.00042035,0.00005604,0.01415922,-0.00294248,0.
 01867089,0.00047957,-0.00290080,0.00218842,0.00059346,-0.00045211,0.00
 064889,0.00284438,-0.00036444,0.00299074,0.02156302,-0.05063748,0.0240
 5405,-0.00131733,-0.00091120,0.00042803,-0.00019083,0.00001605,0.00033
 041,0.00011556,-0.00044204,0.00003075,-0.00000189,-0.00003161,-0.00033
 959,-0.00001470,-0.00002644,-0.00004228,-0.00000917,0.00001678,0.00003
 252,-0.00003697,0.00002475,0.00003181,0.00032061,0.00110984,-0.0002761
 0,0.00046919,-0.00021646,0.00023221,0.00068260,-0.00020397,0.00036754,
 0.00024822,0.00010222,0.00012711,-0.02618983,0.05810689,-0.00066187,0.
 00030498,-0.00021296,0.00158404,-0.00063142,-0.00008056,0.00086625,-0.
 00203316,-0.00146746,-0.01186068,0.00187065,-0.01360670,-0.00070176,0.
 00019975,0.00031336,-0.00033877,0.00014617,-0.00024951,0.00000603,0.00
 006374,-0.00020941,-0.00073425,0.00036984,0.00044457,0.00038275,0.0001
 5916,-0.00018149,-0.00782363,0.00053899,-0.00851754,0.00087543,0.00182
 307,-0.00026148,0.00339181,-0.00053519,-0.00014114,0.01188872,-0.00241
 097,0.01441155,-0.13393128,0.02726168,-0.21939632,-0.00089362,-0.00058
 729,0.00029093,0.00000073,-0.00001673,0.00023170,0.00035627,-0.0005417
 3,0.00001623,0.00087380,0.00003677,-0.00002509,0.00007001,0.00010866,0
 .00030751,0.00002791,-0.00004571,0.00001475,-0.00003543,-0.00005262,0.
 00013968,0.00054067,-0.00045942,0.00122049,-0.00017287,0.00003091,-0.0
 0005872,-0.00043029,0.00012126,-0.00030522,0.00031791,-0.00022811,0.00
 060459,0.13640208,-0.02549328,0.22671822\\0.00000396,-0.00000467,-0.00
 000880,0.00000078,-0.00000200,-0.00000648,0.00000385,0.00000120,-0.000
 00641,0.00000274,0.00000369,-0.00000564,0.00000710,-0.00000048,0.00000
 119,0.00000017,0.00000251,0.00000880,0.00000683,-0.00000371,0.00001611
 ,-0.00000337,-0.00000263,-0.00000411,-0.00000386,-0.00000192,0.0000081
 0,0.00000515,0.00001706,0.00000912,-0.00000174,-0.00000747,-0.00000567
 ,-0.00000173,-0.00000282,-0.00000772,-0.00000493,-0.00000087,-0.000005
 09,-0.00000569,-0.00000402,-0.00000152,0.00000574,-0.00000178,-0.00000
 332,0.00000225,-0.00000036,0.00000403,0.00000322,0.00000400,0.00000363
 ,-0.00000231,0.00000428,0.00000809,0.00000290,0.00000256,0.00000860,0.
 00000204,0.00000471,0.00000324,-0.00000024,0.00000258,0.00000133,-0.00
 000843,-0.00000017,0.00000320,-0.00000261,-0.00000291,-0.00000608,-0.0
 0000252,-0.00000226,-0.00000559,-0.00000393,-0.00000410,-0.00000878,-0
 .00000540,-0.00000043,-0.00000024\\\@


 TRUTH, IN SCIENCE, CAN BE DEFINED AS THE WORKING HYPOTHESIS 
 BEST FITTED TO OPEN THE WAY TO THE NEXT BETTER ONE.

                              -- KONRAD LORENZ
 Job cpu time:       0 days  0 hours 27 minutes 34.1 seconds.
 Elapsed time:       0 days  0 hours  1 minutes 43.8 seconds.
 File lengths (MBytes):  RWF=    260 Int=      0 D2E=      0 Chk=     19 Scr=      1
 Normal termination of Gaussian 16 at Sat Jan 24 10:14:30 2026.
