 Entering Gaussian System, Link 0=g16
 Initial command:
 /root/g16/l1.exe "/root/g16/scratch/gau_root_555380/Gau-555387.inp" -scrdir="/root/g16/scratch/gau_root_555380/"
 Entering Link 1 = /root/g16/l1.exe PID=    555389.
  
 Copyright (c) 1988,1990,1992,1993,1995,1998,2003,2009,2016,
            Gaussian, Inc.  All Rights Reserved.
  
 This is part of the Gaussian(R) 16 program.  It is based on
 the Gaussian(R) 09 system (copyright 2009, Gaussian, Inc.),
 the Gaussian(R) 03 system (copyright 2003, Gaussian, Inc.),
 the Gaussian(R) 98 system (copyright 1998, Gaussian, Inc.),
 the Gaussian(R) 94 system (copyright 1995, Gaussian, Inc.),
 the Gaussian 92(TM) system (copyright 1992, Gaussian, Inc.),
 the Gaussian 90(TM) system (copyright 1990, Gaussian, Inc.),
 the Gaussian 88(TM) system (copyright 1988, Gaussian, Inc.),
 the Gaussian 86(TM) system (copyright 1986, Carnegie Mellon
 University), and the Gaussian 82(TM) system (copyright 1983,
 Carnegie Mellon University). Gaussian is a federally registered
 trademark of Gaussian, Inc.
  
 This software contains proprietary and confidential information,
 including trade secrets, belonging to Gaussian, Inc.
  
 This software is provided under written license and may be
 used, copied, transmitted, or stored only in accord with that
 written license.
  
 The following legend is applicable only to US Government
 contracts under FAR:
  
                    RESTRICTED RIGHTS LEGEND
  
 Use, reproduction and disclosure by the US Government is
 subject to restrictions as set forth in subparagraphs (a)
 and (c) of the Commercial Computer Software - Restricted
 Rights clause in FAR 52.227-19.
  
 Gaussian, Inc.
 340 Quinnipiac St., Bldg. 40, Wallingford CT 06492
  
  
 ---------------------------------------------------------------
 Warning -- This program may not be used in any manner that
 competes with the business of Gaussian, Inc. or will provide
 assistance to any competitor of Gaussian, Inc.  The licensee
 of this program is prohibited from giving any competitor of
 Gaussian, Inc. access to this program.  By using this program,
 the user acknowledges that Gaussian, Inc. is engaged in the
 business of creating and licensing software in the field of
 computational chemistry and represents and warrants to the
 licensee that it is not a competitor of Gaussian, Inc. and that
 it will not use this program in any manner prohibited above.
 ---------------------------------------------------------------
  

 Cite this work as:
 Gaussian 16, Revision A.03,
 M. J. Frisch, G. W. Trucks, H. B. Schlegel, G. E. Scuseria, 
 M. A. Robb, J. R. Cheeseman, G. Scalmani, V. Barone, 
 G. A. Petersson, H. Nakatsuji, X. Li, M. Caricato, A. V. Marenich, 
 J. Bloino, B. G. Janesko, R. Gomperts, B. Mennucci, H. P. Hratchian, 
 J. V. Ortiz, A. F. Izmaylov, J. L. Sonnenberg, D. Williams-Young, 
 F. Ding, F. Lipparini, F. Egidi, J. Goings, B. Peng, A. Petrone, 
 T. Henderson, D. Ranasinghe, V. G. Zakrzewski, J. Gao, N. Rega, 
 G. Zheng, W. Liang, M. Hada, M. Ehara, K. Toyota, R. Fukuda, 
 J. Hasegawa, M. Ishida, T. Nakajima, Y. Honda, O. Kitao, H. Nakai, 
 T. Vreven, K. Throssell, J. A. Montgomery, Jr., J. E. Peralta, 
 F. Ogliaro, M. J. Bearpark, J. J. Heyd, E. N. Brothers, K. N. Kudin, 
 V. N. Staroverov, T. A. Keith, R. Kobayashi, J. Normand, 
 K. Raghavachari, A. P. Rendell, J. C. Burant, S. S. Iyengar, 
 J. Tomasi, M. Cossi, J. M. Millam, M. Klene, C. Adamo, R. Cammi, 
 J. W. Ochterski, R. L. Martin, K. Morokuma, O. Farkas, 
 J. B. Foresman, and D. J. Fox, Gaussian, Inc., Wallingford CT, 2016.
 
 ******************************************
 Gaussian 16:  ES64L-G16RevA.03 25-Dec-2016
                24-Jan-2026 
 ******************************************
 %chk=conf_002.chk
 %mem=32GB
 %nprocshared=16
 Will use up to   16 processors via shared memory.
 --------------------------------------------------------------------
 #p B3LYP/def2SVP em=GD3BJ SCRF=(PCM,Solvent=Acetone) Opt=CalcFC Freq
 --------------------------------------------------------------------
 1/10=4,18=20,19=15,26=3,38=1/1,3;
 2/9=110,12=2,17=6,18=5,40=1/2;
 3/5=43,7=101,11=2,25=1,30=1,70=2201,71=2,72=19,74=-5,124=41,140=1/1,2,3;
 4//1;
 5/5=2,38=5,53=19/2;
 8/6=4,10=90,11=11/1;
 11/6=1,8=1,9=11,15=111,16=1/1,2,10;
 10/6=1,13=1/2;
 6/7=2,8=2,9=2,10=2,28=1/1;
 7/10=1,18=20,25=1/1,2,3,16;
 1/10=4,18=20,19=15,26=3/3(2);
 2/9=110/2;
 99//99;
 2/9=110/2;
 3/5=43,7=101,11=2,25=1,30=1,70=2205,71=1,72=19,74=-5,124=41/1,2,3;
 4/5=5,16=3,69=1/1;
 5/5=2,38=5,53=19/2;
 7//1,2,3,16;
 1/18=20,19=15,26=3/3(-5);
 2/9=110/2;
 6/7=2,8=2,9=2,10=2,19=2,28=1/1;
 99/9=1/99;
 Leave Link    1 at Sat Jan 24 09:59:11 2026, MaxMem=  4294967296 cpu:               0.3 elap:               0.0
 (Enter /root/g16/l101.exe)
 ----------------
 product_conf_002
 ----------------
 Symbolic Z-matrix:
 Charge =  0 Multiplicity = 1
 O                     3.02357   0.84773   1.30602 
 C                     2.07788   0.7033    0.55663 
 C                     0.88885   1.55023   0.55124 
 C                    -0.13494   1.28332  -0.2733 
 C                    -1.44893   1.98321  -0.23137 
 C                    -2.57807   0.95055  -0.10472 
 C                    -2.23352  -0.14579   0.9137 
 C                    -1.56712  -1.36024   0.30973 
 O                    -1.98533  -2.4731    0.53516 
 C                    -0.34182  -1.20688  -0.5737 
 C                     0.96305  -1.48739   0.20547 
 C                     1.95785  -0.46644  -0.41716 
 O                     1.35129  -0.02719  -1.61393 
 C                    -0.0028    0.14781  -1.24911 
 H                     0.862     2.37116   1.2533 
 H                    -1.47083   2.67047   0.61529 
 H                    -1.58811   2.56446  -1.14597 
 H                    -2.78907   0.49195  -1.07168 
 H                    -3.48352   1.46393   0.21851 
 H                    -3.13853  -0.50497   1.40803 
 H                    -1.57206   0.25982   1.68347 
 H                    -0.42968  -1.95549  -1.36781 
 H                     0.84609  -1.31306   1.27597 
 H                     1.3025   -2.5098    0.06054 
 H                     2.93505  -0.89086  -0.64963 
 H                    -0.57151   0.32758  -2.16234 
 
 ITRead=  0  0  0  0  0  0  0  0  0  0  0  0  0  0  0  0  0  0  0  0
 ITRead=  0  0  0  0  0  0
 MicOpt= -1 -1 -1 -1 -1 -1 -1 -1 -1 -1 -1 -1 -1 -1 -1 -1 -1 -1 -1 -1
 MicOpt= -1 -1 -1 -1 -1 -1
 NAtoms=     26 NQM=       26 NQMF=       0 NMMI=      0 NMMIF=      0
                NMic=       0 NMicF=      0.
                    Isotopes and Nuclear Properties:
 (Nuclear quadrupole moments (NQMom) in fm**2, nuclear magnetic moments (NMagM)
  in nuclear magnetons)

  Atom         1           2           3           4           5           6           7           8           9          10
 IAtWgt=          16          12          12          12          12          12          12          12          16          12
 AtmWgt=  15.9949146  12.0000000  12.0000000  12.0000000  12.0000000  12.0000000  12.0000000  12.0000000  15.9949146  12.0000000
 NucSpn=           0           0           0           0           0           0           0           0           0           0
 AtZEff=  -0.0000000  -0.0000000  -0.0000000  -0.0000000  -0.0000000  -0.0000000  -0.0000000  -0.0000000  -0.0000000  -0.0000000
 NQMom=    0.0000000   0.0000000   0.0000000   0.0000000   0.0000000   0.0000000   0.0000000   0.0000000   0.0000000   0.0000000
 NMagM=    0.0000000   0.0000000   0.0000000   0.0000000   0.0000000   0.0000000   0.0000000   0.0000000   0.0000000   0.0000000
 AtZNuc=   8.0000000   6.0000000   6.0000000   6.0000000   6.0000000   6.0000000   6.0000000   6.0000000   8.0000000   6.0000000

  Atom        11          12          13          14          15          16          17          18          19          20
 IAtWgt=          12          12          16          12           1           1           1           1           1           1
 AtmWgt=  12.0000000  12.0000000  15.9949146  12.0000000   1.0078250   1.0078250   1.0078250   1.0078250   1.0078250   1.0078250
 NucSpn=           0           0           0           0           1           1           1           1           1           1
 AtZEff=  -0.0000000  -0.0000000  -0.0000000  -0.0000000  -0.0000000  -0.0000000  -0.0000000  -0.0000000  -0.0000000  -0.0000000
 NQMom=    0.0000000   0.0000000   0.0000000   0.0000000   0.0000000   0.0000000   0.0000000   0.0000000   0.0000000   0.0000000
 NMagM=    0.0000000   0.0000000   0.0000000   0.0000000   2.7928460   2.7928460   2.7928460   2.7928460   2.7928460   2.7928460
 AtZNuc=   6.0000000   6.0000000   8.0000000   6.0000000   1.0000000   1.0000000   1.0000000   1.0000000   1.0000000   1.0000000

  Atom        21          22          23          24          25          26
 IAtWgt=           1           1           1           1           1           1
 AtmWgt=   1.0078250   1.0078250   1.0078250   1.0078250   1.0078250   1.0078250
 NucSpn=           1           1           1           1           1           1
 AtZEff=  -0.0000000  -0.0000000  -0.0000000  -0.0000000  -0.0000000  -0.0000000
 NQMom=    0.0000000   0.0000000   0.0000000   0.0000000   0.0000000   0.0000000
 NMagM=    2.7928460   2.7928460   2.7928460   2.7928460   2.7928460   2.7928460
 AtZNuc=   1.0000000   1.0000000   1.0000000   1.0000000   1.0000000   1.0000000
 Leave Link  101 at Sat Jan 24 09:59:12 2026, MaxMem=  4294967296 cpu:               4.7 elap:               0.3
 (Enter /root/g16/l103.exe)

 GradGradGradGradGradGradGradGradGradGradGradGradGradGradGradGradGradGrad
 Berny optimization.
 Initialization pass.
                           ----------------------------
                           !    Initial Parameters    !
                           ! (Angstroms and Degrees)  !
 --------------------------                            --------------------------
 ! Name  Definition              Value          Derivative Info.                !
 --------------------------------------------------------------------------------
 ! R1    R(1,2)                  1.2152         calculate D2E/DX2 analytically  !
 ! R2    R(2,3)                  1.4598         calculate D2E/DX2 analytically  !
 ! R3    R(2,12)                 1.5268         calculate D2E/DX2 analytically  !
 ! R4    R(3,4)                  1.3414         calculate D2E/DX2 analytically  !
 ! R5    R(3,15)                 1.0805         calculate D2E/DX2 analytically  !
 ! R6    R(4,5)                  1.4894         calculate D2E/DX2 analytically  !
 ! R7    R(4,14)                 1.503          calculate D2E/DX2 analytically  !
 ! R8    R(5,6)                  1.5354         calculate D2E/DX2 analytically  !
 ! R9    R(5,16)                 1.0907         calculate D2E/DX2 analytically  !
 ! R10   R(5,17)                 1.0926         calculate D2E/DX2 analytically  !
 ! R11   R(6,7)                  1.5355         calculate D2E/DX2 analytically  !
 ! R12   R(6,18)                 1.0908         calculate D2E/DX2 analytically  !
 ! R13   R(6,19)                 1.0899         calculate D2E/DX2 analytically  !
 ! R14   R(7,8)                  1.5112         calculate D2E/DX2 analytically  !
 ! R15   R(7,20)                 1.092          calculate D2E/DX2 analytically  !
 ! R16   R(7,21)                 1.093          calculate D2E/DX2 analytically  !
 ! R17   R(8,9)                  1.21           calculate D2E/DX2 analytically  !
 ! R18   R(8,10)                 1.5183         calculate D2E/DX2 analytically  !
 ! R19   R(10,11)                1.5455         calculate D2E/DX2 analytically  !
 ! R20   R(10,14)                1.5512         calculate D2E/DX2 analytically  !
 ! R21   R(10,22)                1.0949         calculate D2E/DX2 analytically  !
 ! R22   R(11,12)                1.5555         calculate D2E/DX2 analytically  !
 ! R23   R(11,23)                1.0909         calculate D2E/DX2 analytically  !
 ! R24   R(11,24)                1.087          calculate D2E/DX2 analytically  !
 ! R25   R(12,13)                1.4118         calculate D2E/DX2 analytically  !
 ! R26   R(12,25)                1.0904         calculate D2E/DX2 analytically  !
 ! R27   R(13,14)                1.4133         calculate D2E/DX2 analytically  !
 ! R28   R(14,26)                1.0907         calculate D2E/DX2 analytically  !
 ! A1    A(1,2,3)              124.5529         calculate D2E/DX2 analytically  !
 ! A2    A(1,2,12)             123.063          calculate D2E/DX2 analytically  !
 ! A3    A(3,2,12)             112.2163         calculate D2E/DX2 analytically  !
 ! A4    A(2,3,4)              120.5634         calculate D2E/DX2 analytically  !
 ! A5    A(2,3,15)             117.2976         calculate D2E/DX2 analytically  !
 ! A6    A(4,3,15)             122.1143         calculate D2E/DX2 analytically  !
 ! A7    A(3,4,5)              124.2332         calculate D2E/DX2 analytically  !
 ! A8    A(3,4,14)             118.8367         calculate D2E/DX2 analytically  !
 ! A9    A(5,4,14)             116.7996         calculate D2E/DX2 analytically  !
 ! A10   A(4,5,6)              109.5774         calculate D2E/DX2 analytically  !
 ! A11   A(4,5,16)             109.6136         calculate D2E/DX2 analytically  !
 ! A12   A(4,5,17)             109.8049         calculate D2E/DX2 analytically  !
 ! A13   A(6,5,16)             110.1821         calculate D2E/DX2 analytically  !
 ! A14   A(6,5,17)             109.4617         calculate D2E/DX2 analytically  !
 ! A15   A(16,5,17)            108.1818         calculate D2E/DX2 analytically  !
 ! A16   A(5,6,7)              111.7096         calculate D2E/DX2 analytically  !
 ! A17   A(5,6,18)             110.6039         calculate D2E/DX2 analytically  !
 ! A18   A(5,6,19)             108.5792         calculate D2E/DX2 analytically  !
 ! A19   A(7,6,18)             109.3397         calculate D2E/DX2 analytically  !
 ! A20   A(7,6,19)             109.0272         calculate D2E/DX2 analytically  !
 ! A21   A(18,6,19)            107.4716         calculate D2E/DX2 analytically  !
 ! A22   A(6,7,8)              114.0572         calculate D2E/DX2 analytically  !
 ! A23   A(6,7,20)             110.4341         calculate D2E/DX2 analytically  !
 ! A24   A(6,7,21)             109.7513         calculate D2E/DX2 analytically  !
 ! A25   A(8,7,20)             106.3833         calculate D2E/DX2 analytically  !
 ! A26   A(8,7,21)             108.2301         calculate D2E/DX2 analytically  !
 ! A27   A(20,7,21)            107.7467         calculate D2E/DX2 analytically  !
 ! A28   A(7,8,9)              120.8119         calculate D2E/DX2 analytically  !
 ! A29   A(7,8,10)             120.4803         calculate D2E/DX2 analytically  !
 ! A30   A(9,8,10)             118.6989         calculate D2E/DX2 analytically  !
 ! A31   A(8,10,11)            111.6966         calculate D2E/DX2 analytically  !
 ! A32   A(8,10,14)            121.1923         calculate D2E/DX2 analytically  !
 ! A33   A(8,10,22)            106.7497         calculate D2E/DX2 analytically  !
 ! A34   A(11,10,14)           101.1569         calculate D2E/DX2 analytically  !
 ! A35   A(11,10,22)           108.0186         calculate D2E/DX2 analytically  !
 ! A36   A(14,10,22)           107.3888         calculate D2E/DX2 analytically  !
 ! A37   A(10,11,12)           102.6527         calculate D2E/DX2 analytically  !
 ! A38   A(10,11,23)           112.0376         calculate D2E/DX2 analytically  !
 ! A39   A(10,11,24)           111.5406         calculate D2E/DX2 analytically  !
 ! A40   A(12,11,23)           110.8836         calculate D2E/DX2 analytically  !
 ! A41   A(12,11,24)           111.3617         calculate D2E/DX2 analytically  !
 ! A42   A(23,11,24)           108.3388         calculate D2E/DX2 analytically  !
 ! A43   A(2,12,11)            107.3282         calculate D2E/DX2 analytically  !
 ! A44   A(2,12,13)            109.638          calculate D2E/DX2 analytically  !
 ! A45   A(2,12,25)            111.3291         calculate D2E/DX2 analytically  !
 ! A46   A(11,12,13)           105.5898         calculate D2E/DX2 analytically  !
 ! A47   A(11,12,25)           113.7654         calculate D2E/DX2 analytically  !
 ! A48   A(13,12,25)           108.9892         calculate D2E/DX2 analytically  !
 ! A49   A(12,13,14)           103.3769         calculate D2E/DX2 analytically  !
 ! A50   A(4,14,10)            110.9698         calculate D2E/DX2 analytically  !
 ! A51   A(4,14,13)            110.2051         calculate D2E/DX2 analytically  !
 ! A52   A(4,14,26)            111.9141         calculate D2E/DX2 analytically  !
 ! A53   A(10,14,13)           102.3368         calculate D2E/DX2 analytically  !
 ! A54   A(10,14,26)           113.2362         calculate D2E/DX2 analytically  !
 ! A55   A(13,14,26)           107.689          calculate D2E/DX2 analytically  !
 ! D1    D(1,2,3,4)           -177.1111         calculate D2E/DX2 analytically  !
 ! D2    D(1,2,3,15)             1.1187         calculate D2E/DX2 analytically  !
 ! D3    D(12,2,3,4)            -1.7072         calculate D2E/DX2 analytically  !
 ! D4    D(12,2,3,15)          176.5226         calculate D2E/DX2 analytically  !
 ! D5    D(1,2,12,11)          102.0016         calculate D2E/DX2 analytically  !
 ! D6    D(1,2,12,13)         -143.7781         calculate D2E/DX2 analytically  !
 ! D7    D(1,2,12,25)          -23.0995         calculate D2E/DX2 analytically  !
 ! D8    D(3,2,12,11)          -73.4818         calculate D2E/DX2 analytically  !
 ! D9    D(3,2,12,13)           40.7385         calculate D2E/DX2 analytically  !
 ! D10   D(3,2,12,25)          161.417          calculate D2E/DX2 analytically  !
 ! D11   D(2,3,4,5)            172.0592         calculate D2E/DX2 analytically  !
 ! D12   D(2,3,4,14)            -3.6477         calculate D2E/DX2 analytically  !
 ! D13   D(15,3,4,5)            -6.0835         calculate D2E/DX2 analytically  !
 ! D14   D(15,3,4,14)          178.2095         calculate D2E/DX2 analytically  !
 ! D15   D(3,4,5,6)           -125.8242         calculate D2E/DX2 analytically  !
 ! D16   D(3,4,5,16)            -4.796          calculate D2E/DX2 analytically  !
 ! D17   D(3,4,5,17)           113.9159         calculate D2E/DX2 analytically  !
 ! D18   D(14,4,5,6)            49.9627         calculate D2E/DX2 analytically  !
 ! D19   D(14,4,5,16)          170.9909         calculate D2E/DX2 analytically  !
 ! D20   D(14,4,5,17)          -70.2972         calculate D2E/DX2 analytically  !
 ! D21   D(3,4,14,10)           83.0007         calculate D2E/DX2 analytically  !
 ! D22   D(3,4,14,13)          -29.6348         calculate D2E/DX2 analytically  !
 ! D23   D(3,4,14,26)         -149.4394         calculate D2E/DX2 analytically  !
 ! D24   D(5,4,14,10)          -93.0234         calculate D2E/DX2 analytically  !
 ! D25   D(5,4,14,13)          154.3411         calculate D2E/DX2 analytically  !
 ! D26   D(5,4,14,26)           34.5365         calculate D2E/DX2 analytically  !
 ! D27   D(4,5,6,7)             43.1382         calculate D2E/DX2 analytically  !
 ! D28   D(4,5,6,18)           -78.9005         calculate D2E/DX2 analytically  !
 ! D29   D(4,5,6,19)           163.4051         calculate D2E/DX2 analytically  !
 ! D30   D(16,5,6,7)           -77.5456         calculate D2E/DX2 analytically  !
 ! D31   D(16,5,6,18)          160.4157         calculate D2E/DX2 analytically  !
 ! D32   D(16,5,6,19)           42.7213         calculate D2E/DX2 analytically  !
 ! D33   D(17,5,6,7)           163.6071         calculate D2E/DX2 analytically  !
 ! D34   D(17,5,6,18)           41.5684         calculate D2E/DX2 analytically  !
 ! D35   D(17,5,6,19)          -76.126          calculate D2E/DX2 analytically  !
 ! D36   D(5,6,7,8)            -92.1919         calculate D2E/DX2 analytically  !
 ! D37   D(5,6,7,20)           148.0749         calculate D2E/DX2 analytically  !
 ! D38   D(5,6,7,21)            29.4294         calculate D2E/DX2 analytically  !
 ! D39   D(18,6,7,8)            30.5707         calculate D2E/DX2 analytically  !
 ! D40   D(18,6,7,20)          -89.1625         calculate D2E/DX2 analytically  !
 ! D41   D(18,6,7,21)          152.192          calculate D2E/DX2 analytically  !
 ! D42   D(19,6,7,8)           147.804          calculate D2E/DX2 analytically  !
 ! D43   D(19,6,7,20)           28.0708         calculate D2E/DX2 analytically  !
 ! D44   D(19,6,7,21)          -90.5747         calculate D2E/DX2 analytically  !
 ! D45   D(6,7,8,9)           -129.0287         calculate D2E/DX2 analytically  !
 ! D46   D(6,7,8,10)            52.0721         calculate D2E/DX2 analytically  !
 ! D47   D(20,7,8,9)            -7.0387         calculate D2E/DX2 analytically  !
 ! D48   D(20,7,8,10)          174.0621         calculate D2E/DX2 analytically  !
 ! D49   D(21,7,8,9)           108.5135         calculate D2E/DX2 analytically  !
 ! D50   D(21,7,8,10)          -70.3857         calculate D2E/DX2 analytically  !
 ! D51   D(7,8,10,11)           99.2823         calculate D2E/DX2 analytically  !
 ! D52   D(7,8,10,14)          -19.6866         calculate D2E/DX2 analytically  !
 ! D53   D(7,8,10,22)         -142.8516         calculate D2E/DX2 analytically  !
 ! D54   D(9,8,10,11)          -79.6399         calculate D2E/DX2 analytically  !
 ! D55   D(9,8,10,14)          161.3912         calculate D2E/DX2 analytically  !
 ! D56   D(9,8,10,22)           38.2262         calculate D2E/DX2 analytically  !
 ! D57   D(8,10,11,12)        -144.0935         calculate D2E/DX2 analytically  !
 ! D58   D(8,10,11,23)         -25.0802         calculate D2E/DX2 analytically  !
 ! D59   D(8,10,11,24)          96.5682         calculate D2E/DX2 analytically  !
 ! D60   D(14,10,11,12)        -13.807          calculate D2E/DX2 analytically  !
 ! D61   D(14,10,11,23)        105.2063         calculate D2E/DX2 analytically  !
 ! D62   D(14,10,11,24)       -133.1453         calculate D2E/DX2 analytically  !
 ! D63   D(22,10,11,12)         98.8041         calculate D2E/DX2 analytically  !
 ! D64   D(22,10,11,23)       -142.1826         calculate D2E/DX2 analytically  !
 ! D65   D(22,10,11,24)        -20.5342         calculate D2E/DX2 analytically  !
 ! D66   D(8,10,14,4)           45.7132         calculate D2E/DX2 analytically  !
 ! D67   D(8,10,14,13)         163.2582         calculate D2E/DX2 analytically  !
 ! D68   D(8,10,14,26)         -81.1224         calculate D2E/DX2 analytically  !
 ! D69   D(11,10,14,4)         -78.3357         calculate D2E/DX2 analytically  !
 ! D70   D(11,10,14,13)         39.2093         calculate D2E/DX2 analytically  !
 ! D71   D(11,10,14,26)        154.8287         calculate D2E/DX2 analytically  !
 ! D72   D(22,10,14,4)         168.5761         calculate D2E/DX2 analytically  !
 ! D73   D(22,10,14,13)        -73.8789         calculate D2E/DX2 analytically  !
 ! D74   D(22,10,14,26)         41.7405         calculate D2E/DX2 analytically  !
 ! D75   D(10,11,12,2)         101.3711         calculate D2E/DX2 analytically  !
 ! D76   D(10,11,12,13)        -15.5366         calculate D2E/DX2 analytically  !
 ! D77   D(10,11,12,25)       -135.0072         calculate D2E/DX2 analytically  !
 ! D78   D(23,11,12,2)         -18.4467         calculate D2E/DX2 analytically  !
 ! D79   D(23,11,12,13)       -135.3545         calculate D2E/DX2 analytically  !
 ! D80   D(23,11,12,25)        105.1749         calculate D2E/DX2 analytically  !
 ! D81   D(24,11,12,2)        -139.1657         calculate D2E/DX2 analytically  !
 ! D82   D(24,11,12,13)        103.9265         calculate D2E/DX2 analytically  !
 ! D83   D(24,11,12,25)        -15.5441         calculate D2E/DX2 analytically  !
 ! D84   D(2,12,13,14)         -73.3887         calculate D2E/DX2 analytically  !
 ! D85   D(11,12,13,14)         41.9443         calculate D2E/DX2 analytically  !
 ! D86   D(25,12,13,14)        164.5244         calculate D2E/DX2 analytically  !
 ! D87   D(12,13,14,4)          66.9524         calculate D2E/DX2 analytically  !
 ! D88   D(12,13,14,10)        -51.137          calculate D2E/DX2 analytically  !
 ! D89   D(12,13,14,26)       -170.7173         calculate D2E/DX2 analytically  !
 --------------------------------------------------------------------------------
 Trust Radius=3.00D-01 FncErr=1.00D-07 GrdErr=1.00D-06 EigMax=2.50D+02 EigMin=1.00D-04
 Number of steps in this run=    156 maximum allowed number of steps=    156.
 GradGradGradGradGradGradGradGradGradGradGradGradGradGradGradGradGradGrad

 Leave Link  103 at Sat Jan 24 09:59:12 2026, MaxMem=  4294967296 cpu:               0.4 elap:               0.0
 (Enter /root/g16/l202.exe)
                          Input orientation:                          
 ---------------------------------------------------------------------
 Center     Atomic      Atomic             Coordinates (Angstroms)
 Number     Number       Type             X           Y           Z
 ---------------------------------------------------------------------
      1          8           0        3.023566    0.847732    1.306020
      2          6           0        2.077885    0.703305    0.556627
      3          6           0        0.888846    1.550230    0.551243
      4          6           0       -0.134944    1.283322   -0.273301
      5          6           0       -1.448934    1.983214   -0.231368
      6          6           0       -2.578071    0.950551   -0.104723
      7          6           0       -2.233524   -0.145794    0.913702
      8          6           0       -1.567122   -1.360238    0.309729
      9          8           0       -1.985334   -2.473099    0.535162
     10          6           0       -0.341820   -1.206884   -0.573703
     11          6           0        0.963049   -1.487387    0.205472
     12          6           0        1.957853   -0.466443   -0.417157
     13          8           0        1.351289   -0.027191   -1.613934
     14          6           0       -0.002802    0.147807   -1.249114
     15          1           0        0.861996    2.371156    1.253304
     16          1           0       -1.470832    2.670472    0.615285
     17          1           0       -1.588112    2.564457   -1.145971
     18          1           0       -2.789074    0.491954   -1.071685
     19          1           0       -3.483522    1.463925    0.218512
     20          1           0       -3.138527   -0.504973    1.408035
     21          1           0       -1.572059    0.259820    1.683474
     22          1           0       -0.429679   -1.955490   -1.367805
     23          1           0        0.846091   -1.313056    1.275968
     24          1           0        1.302502   -2.509799    0.060538
     25          1           0        2.935046   -0.890857   -0.649634
     26          1           0       -0.571515    0.327577   -2.162339
 ---------------------------------------------------------------------
                    Distance matrix (angstroms):
                    1          2          3          4          5
     1  O    0.000000
     2  C    1.215221   0.000000
     3  C    2.370701   1.459837   0.000000
     4  C    3.558115   2.433478   1.341364   0.000000
     5  C    4.863758   3.833739   2.503032   1.489354   0.000000
     6  C    5.777466   4.709187   3.579025   2.471442   1.535377
     7  C    5.364514   4.408710   3.571704   2.802746   2.541543
     8  C    5.190582   4.195860   3.815878   3.062591   3.389015
     9  O    6.058979   5.157494   4.944527   4.264769   4.553462
    10  C    4.368138   3.283510   3.222067   2.516777   3.394057
    11  C    3.302986   2.483002   3.058133   3.018549   4.248948
    12  C    2.414982   1.526753   2.479424   2.731698   4.200183
    13  O    3.476799   2.402686   2.718474   2.392411   3.714090
    14  C    4.022128   2.810434   2.450125   1.503020   2.548690
    15  H    2.644993   2.178410   1.080523   2.123156   2.774012
    16  H    4.898889   4.057903   2.612876   2.120935   1.090699
    17  H    5.497907   4.449973   3.169308   2.124749   1.092572
    18  H    6.290218   5.136473   4.157035   2.882375   2.173929
    19  H    6.626052   5.623354   4.385858   3.389317   2.147463
    20  H    6.309644   5.421788   4.601922   3.878969   3.425411
    21  H    4.648428   3.845588   3.000526   2.634734   2.579121
    22  H    5.189634   4.130437   4.208483   3.431431   4.224188
    23  H    3.067786   2.469915   2.953889   3.178654   4.290058
    24  H    3.973198   3.342359   4.110443   4.070070   5.276625
    25  H    2.618227   2.175119   3.404107   3.780678   5.258756
    26  H    5.022418   3.814875   3.315277   2.161599   2.690659
                    6          7          8          9         10
     6  C    0.000000
     7  C    1.535538   0.000000
     8  C    2.556078   1.511208   0.000000
     9  O    3.533012   2.370915   1.210034   0.000000
    10  C    3.142498   2.629987   1.518333   2.352450   0.000000
    11  C    4.310371   3.538297   2.535508   3.126226   1.545470
    12  C    4.762363   4.409268   3.708461   4.525738   2.421003
    13  O    4.321292   4.387926   3.740937   4.661988   2.310925
    14  C    2.930195   3.120913   2.674189   3.739415   1.551227
    15  H    3.961870   4.004074   4.551290   5.664788   4.193983
    16  H    2.168529   2.932935   4.043421   5.169860   4.209780
    17  H    2.160765   3.464718   4.186016   5.325501   4.012948
    18  H    1.090802   2.158036   2.613825   3.466914   3.020445
    19  H    1.089896   2.153365   3.414206   4.224334   4.198943
    20  H    2.172809   1.091973   2.099302   2.442393   3.498791
    21  H    2.164907   1.092982   2.124097   2.993036   2.959655
    22  H    3.828321   3.425512   2.112397   2.511825   1.094865
    23  H    4.330717   3.313271   2.599892   3.148247   2.200837
    24  H    5.201941   4.338190   3.101343   3.322120   2.191721
    25  H    5.837994   5.450987   4.627117   5.302582   3.292946
    26  H    2.940774   3.528227   3.154532   4.137534   2.220608
                   11         12         13         14         15
    11  C    0.000000
    12  C    1.555515   0.000000
    13  O    2.364982   1.411785   0.000000
    14  C    2.392185   2.216670   1.413251   0.000000
    15  H    3.999564   3.470347   3.769950   3.457347   0.000000
    16  H    4.835237   4.760468   4.495683   3.463370   2.436953
    17  H    4.975164   4.721377   3.946607   2.892066   3.434663
    18  H    4.430276   4.886742   4.207868   2.813047   4.718822
    19  H    5.336891   5.808524   5.381141   4.000188   4.558221
    20  H    4.385684   5.413492   5.433141   4.161651   4.929527
    21  H    3.415259   4.171377   4.416020   3.327941   3.250754
    22  H    2.152676   2.970068   2.636431   2.149459   5.220968
    23  H    1.090886   2.195322   3.203155   3.038220   3.684316
    24  H    1.086996   2.198404   2.994925   3.237573   5.043853
    25  H    2.230656   1.090449   2.045502   3.173193   4.308067
    26  H    3.354923   3.173930   2.030710   1.090748   4.230577
                   16         17         18         19         20
    16  H    0.000000
    17  H    1.768337   0.000000
    18  H    3.054435   2.396476   0.000000
    19  H    2.379938   2.581774   1.758293   0.000000
    20  H    3.673297   4.283472   2.695364   2.326058   0.000000
    21  H    2.638658   3.649297   3.020913   2.692522   1.764823
    22  H    5.139667   4.671306   3.412391   4.851264   4.140911
    23  H    4.655441   5.179405   4.688705   5.251227   4.067877
    24  H    5.902062   5.963169   5.199369   6.222657   5.055474
    25  H    5.804726   5.713537   5.903884   6.891784   6.424267
    26  H    3.743411   2.658967   2.476715   3.929316   4.475518
                   21         22         23         24         25
    21  H    0.000000
    22  H    3.939916   0.000000
    23  H    2.913323   3.004970   0.000000
    24  H    4.309039   2.312547   1.765722   0.000000
    25  H    5.203984   3.601471   2.872269   2.406350   0.000000
    26  H    3.974413   2.421528   4.064878   4.062490   4.008594
                   26
    26  H    0.000000
 Stoichiometry    C11H12O3
 Framework group  C1[X(C11H12O3)]
 Deg. of freedom    72
 Full point group                 C1      NOp   1
 Largest Abelian subgroup         C1      NOp   1
 Largest concise Abelian subgroup C1      NOp   1
                         Standard orientation:                         
 ---------------------------------------------------------------------
 Center     Atomic      Atomic             Coordinates (Angstroms)
 Number     Number       Type             X           Y           Z
 ---------------------------------------------------------------------
      1          8           0       -3.171395    0.256543   -1.298354
      2          6           0       -2.214775    0.282212   -0.549367
      3          6           0       -1.208307    1.339416   -0.527707
      4          6           0       -0.151658    1.258466    0.294605
      5          6           0        1.005375    2.195846    0.266842
      6          6           0        2.310028    1.398725    0.125914
      7          6           0        2.179080    0.273649   -0.910876
      8          6           0        1.756146   -1.054973   -0.328090
      9          8           0        2.377967   -2.064279   -0.570622
     10          6           0        0.524881   -1.151642    0.555072
     11          6           0       -0.703675   -1.662200   -0.231349
     12          6           0       -1.873735   -0.859151    0.405596
     13          8           0       -1.360522   -0.332241    1.610633
     14          6           0       -0.064701    0.102763    1.251610
     15          1           0       -1.338602    2.161832   -1.216317
     16          1           0        0.895476    2.888465   -0.568517
     17          1           0        1.032465    2.777946    1.191038
     18          1           0        2.605255    0.972856    1.085772
     19          1           0        3.101130    2.079979   -0.187014
     20          1           0        3.135363    0.101068   -1.409015
     21          1           0        1.451853    0.558706   -1.675397
     22          1           0        0.754144   -1.882773    1.337131
     23          1           0       -0.623004   -1.451384   -1.298626
     24          1           0       -0.842544   -2.732709   -0.103727
     25          1           0       -2.752264   -1.465228    0.629065
     26          1           0        0.460378    0.372387    2.168848
 ---------------------------------------------------------------------
 Rotational constants (GHZ):           1.1382748           0.6660714           0.5441626
 Leave Link  202 at Sat Jan 24 09:59:12 2026, MaxMem=  4294967296 cpu:               0.3 elap:               0.0
 (Enter /root/g16/l301.exe)
 Standard basis: def2SVP (5D, 7F)
 Ernie: Thresh=  0.10000D-02 Tol=  0.10000D-05 Strict=F.
 There are   270 symmetry adapted cartesian basis functions of A   symmetry.
 There are   256 symmetry adapted basis functions of A   symmetry.
   256 basis functions,   434 primitive gaussians,   270 cartesian basis functions
    51 alpha electrons       51 beta electrons
       nuclear repulsion energy       942.1444595691 Hartrees.
 IExCor=  402 DFT=T Ex+Corr=B3LYP ExCW=0 ScaHFX=  0.200000
 ScaDFX=  0.800000  0.720000  1.000000  0.810000 ScalE2=  1.000000  1.000000
 IRadAn=      5 IRanWt=     -1 IRanGd=            0 ICorTp=0 IEmpDi=141
 NAtoms=   26 NActive=   26 NUniq=   26 SFac= 1.00D+00 NAtFMM=   60 NAOKFM=F Big=F
 Integral buffers will be    131072 words long.
 Raffenetti 2 integral format.
 Two-electron integral symmetry is turned on.
 R6Disp:  Grimme-D3(BJ) Dispersion energy=       -0.0573689017 Hartrees.
 Nuclear repulsion after empirical dispersion term =      942.0870906674 Hartrees.
 Force inversion solution in PCM.
 ------------------------------------------------------------------------------
 Polarizable Continuum Model (PCM)
 =================================
 Model                : PCM.
 Atomic radii         : UFF (Universal Force Field).
 Polarization charges : Total charges.
 Charge compensation  : None.
 Solution method      : Matrix inversion.
 Cavity type          : Scaled VdW (van der Waals Surface) (Alpha=1.100).
 Cavity algorithm     : GePol (No added spheres)
                        Default sphere list used, NSphG=   26.
                        Lebedev-Laikov grids with approx.  5.0 points / Ang**2.
                        Smoothing algorithm: York/Karplus (Gamma=1.0000).
                        Polarization charges: spherical gaussians, with
                                              point-specific exponents (IZeta= 3).
                        Self-potential: point-specific (ISelfS= 7).
                        Self-field    : sphere-specific E.n sum rule (ISelfD= 2).
 1st derivatives      : Analytical E(r).r(x)/FMM algorithm (CHGder, D1EAlg=3).
                        Cavity 1st derivative terms included.
 2nd derivatives      : Analytical E(r).r(xy)/FMM algorithm (CHGder, D2EAlg=3).
                        Cavity 2nd derivative terms included.
 Solvent              : Acetone, Eps=  20.493000 Eps(inf)=   1.846337
 ------------------------------------------------------------------------------
 GePol: Number of generator spheres                  =      26
 GePol: Total number of spheres                      =      26
 GePol: Number of exposed spheres                    =      26 (100.00%)
 GePol: Number of points                             =    1822
 GePol: Average weight of points                     =       0.13
 GePol: Minimum weight of points                     =   0.67D-11
 GePol: Maximum weight of points                     =    0.20577
 GePol: Number of points with low weight             =     125
 GePol: Fraction of low-weight points (<1% of avg)   =       6.86%
 GePol: Cavity surface area                          =    236.620 Ang**2
 GePol: Cavity volume                                =    256.773 Ang**3
 Leave Link  301 at Sat Jan 24 09:59:12 2026, MaxMem=  4294967296 cpu:               0.4 elap:               0.0
 (Enter /root/g16/l302.exe)
 NPDir=0 NMtPBC=     1 NCelOv=     1 NCel=       1 NClECP=     1 NCelD=      1
         NCelK=      1 NCelE2=     1 NClLst=     1 CellRange=     0.0.
 One-electron integrals computed using PRISM.
 One-electron integral symmetry used in STVInt
   1 Symmetry operations used in ECPInt.
 ECPInt:  NShTT=    7260 NPrTT=   26324 LenC2=    7127 LenP2D=   19925.
 LDataN:  DoStor=T MaxTD1= 4 Len=   56
 NBasis=   256 RedAO= T EigKep=  3.47D-04  NBF=   256
 NBsUse=   256 1.00D-06 EigRej= -1.00D+00 NBFU=   256
 Precomputing XC quadrature grid using
 IXCGrd= 4 IRadAn=           5 IRanWt=          -1 IRanGd=           0 AccXCQ= 0.00D+00.
 Generated NRdTot=       0 NPtTot=           0 NUsed=           0 NTot=          32
 NSgBfM=   270   270   270   270   270 MxSgAt=    26 MxSgA2=    26.
 Leave Link  302 at Sat Jan 24 09:59:12 2026, MaxMem=  4294967296 cpu:               1.9 elap:               0.1
 (Enter /root/g16/l303.exe)
 DipDrv:  MaxL=1.
 Leave Link  303 at Sat Jan 24 09:59:12 2026, MaxMem=  4294967296 cpu:               0.2 elap:               0.0
 (Enter /root/g16/l401.exe)
 ExpMin= 1.22D-01 ExpMax= 2.27D+03 ExpMxC= 3.41D+02 IAcc=3 IRadAn=         5 AccDes= 0.00D+00
 Harris functional with IExCor=  402 and IRadAn=       5 diagonalized for initial guess.
 HarFok:  IExCor=  402 AccDes= 0.00D+00 IRadAn=         5 IDoV= 1 UseB2=F ITyADJ=14
 ICtDFT=  3500011 ScaDFX=  1.000000  1.000000  1.000000  1.000000
 FoFCou: FMM=F IPFlag=           0 FMFlag=      100000 FMFlg1=           0
         NFxFlg=           0 DoJE=T BraDBF=F KetDBF=T FulRan=T
         wScrn=  0.000000 ICntrl=       500 IOpCl=  0 I1Cent=   200000004 NGrid=           0
         NMat0=    1 NMatS0=      1 NMatT0=    0 NMatD0=    1 NMtDS0=    0 NMtDT0=    0
 Petite list used in FoFCou.
 Harris En= -651.600432392437    
 JPrj=0 DoOrth=F DoCkMO=F.
 Leave Link  401 at Sat Jan 24 09:59:12 2026, MaxMem=  4294967296 cpu:               6.5 elap:               0.4
 (Enter /root/g16/l502.exe)
 Integral symmetry usage will be decided dynamically.
 Closed shell SCF:
 Using DIIS extrapolation, IDIIS=  1040.
 NGot=  4294967296 LenX=  4294814202 LenY=  4294740861
 Requested convergence on RMS density matrix=1.00D-08 within 128 cycles.
 Requested convergence on MAX density matrix=1.00D-06.
 Requested convergence on             energy=1.00D-06.
 No special actions if energy rises.
 Fock matrices will be formed incrementally for  20 cycles.

 Cycle   1  Pass 1  IDiag  1:
 FoFJK:  IHMeth= 1 ICntrl=       0 DoSepK=F KAlg= 0 I1Cent=           0 FoldK=F
 IRaf= 950000000 NMat=       1 IRICut=       1 DoRegI=T DoRafI=F ISym2E= 0 IDoP0=0 IntGTp=1.
 FoFCou: FMM=F IPFlag=           0 FMFlag=      100000 FMFlg1=           0
         NFxFlg=           0 DoJE=F BraDBF=F KetDBF=F FulRan=T
         wScrn=  0.000000 ICntrl=         0 IOpCl=  0 I1Cent=           0 NGrid=           0
         NMat0=    1 NMatS0=      1 NMatT0=    0 NMatD0=    1 NMtDS0=    0 NMtDT0=    0
 Symmetry not used in FoFCou.
 Inv3:  Mode=1 IEnd=     9959052.
 Iteration    1 A*A^-1 deviation from unit magnitude is 3.44D-15 for    126.
 Iteration    1 A*A^-1 deviation from orthogonality  is 2.27D-15 for   1484     59.
 Iteration    1 A^-1*A deviation from unit magnitude is 3.22D-15 for    126.
 Iteration    1 A^-1*A deviation from orthogonality  is 2.06D-15 for   1404    865.
 E= -651.336187985806    
 DIIS: error= 1.84D-02 at cycle   1 NSaved=   1.
 NSaved= 1 IEnMin= 1 EnMin= -651.336187985806     IErMin= 1 ErrMin= 1.84D-02
 ErrMax= 1.84D-02  0.00D+00 EMaxC= 1.00D-01 BMatC= 3.04D-01 BMatP= 3.04D-01
 IDIUse=3 WtCom= 8.16D-01 WtEn= 1.84D-01
 Coeff-Com:  0.100D+01
 Coeff-En:   0.100D+01
 Coeff:      0.100D+01
 Gap=     0.152 Goal=   None    Shift=    0.000
 GapD=    0.152 DampG=1.000 DampE=0.500 DampFc=0.5000 IDamp=-1.
 Damping current iteration by 5.00D-01
 RMSDP=7.51D-03 MaxDP=3.71D-01              OVMax= 1.63D-01

 Cycle   2  Pass 1  IDiag  1:
 RMSU=  3.75D-03    CP:  9.92D-01
 E= -651.443798211143     Delta-E=       -0.107610225337 Rises=F Damp=T
 DIIS: error= 6.16D-03 at cycle   2 NSaved=   2.
 NSaved= 2 IEnMin= 2 EnMin= -651.443798211143     IErMin= 2 ErrMin= 6.16D-03
 ErrMax= 6.16D-03  0.00D+00 EMaxC= 1.00D-01 BMatC= 3.26D-02 BMatP= 3.04D-01
 IDIUse=3 WtCom= 9.38D-01 WtEn= 6.16D-02
 Coeff-Com:  0.158D+00 0.842D+00
 Coeff-En:   0.219D+00 0.781D+00
 Coeff:      0.162D+00 0.838D+00
 Gap=     0.195 Goal=   None    Shift=    0.000
 RMSDP=2.29D-03 MaxDP=1.23D-01 DE=-1.08D-01 OVMax= 1.25D-01

 Cycle   3  Pass 1  IDiag  1:
 RMSU=  2.14D-03    CP:  9.67D-01  8.47D-01
 E= -651.591571237919     Delta-E=       -0.147773026776 Rises=F Damp=F
 DIIS: error= 8.04D-03 at cycle   3 NSaved=   3.
 NSaved= 3 IEnMin= 3 EnMin= -651.591571237919     IErMin= 2 ErrMin= 6.16D-03
 ErrMax= 8.04D-03  0.00D+00 EMaxC= 1.00D-01 BMatC= 3.38D-02 BMatP= 3.26D-02
 IDIUse=3 WtCom= 9.20D-01 WtEn= 8.04D-02
 Coeff-Com:  0.251D-01 0.504D+00 0.471D+00
 Coeff-En:   0.000D+00 0.000D+00 0.100D+01
 Coeff:      0.231D-01 0.464D+00 0.513D+00
 Gap=     0.178 Goal=   None    Shift=    0.000
 RMSDP=1.19D-03 MaxDP=4.48D-02 DE=-1.48D-01 OVMax= 5.14D-02

 Cycle   4  Pass 1  IDiag  1:
 RMSU=  8.60D-04    CP:  9.76D-01  9.82D-01  7.10D-01
 E= -651.615955686933     Delta-E=       -0.024384449015 Rises=F Damp=F
 DIIS: error= 2.81D-03 at cycle   4 NSaved=   4.
 NSaved= 4 IEnMin= 4 EnMin= -651.615955686933     IErMin= 4 ErrMin= 2.81D-03
 ErrMax= 2.81D-03  0.00D+00 EMaxC= 1.00D-01 BMatC= 5.89D-03 BMatP= 3.26D-02
 IDIUse=3 WtCom= 9.72D-01 WtEn= 2.81D-02
 Coeff-Com:  0.155D-02 0.134D+00 0.315D+00 0.550D+00
 Coeff-En:   0.000D+00 0.000D+00 0.172D+00 0.828D+00
 Coeff:      0.151D-02 0.130D+00 0.311D+00 0.558D+00
 Gap=     0.180 Goal=   None    Shift=    0.000
 RMSDP=5.29D-04 MaxDP=2.14D-02 DE=-2.44D-02 OVMax= 1.96D-02

 Cycle   5  Pass 1  IDiag  1:
 RMSU=  2.27D-04    CP:  9.72D-01  9.12D-01  7.69D-01  5.68D-01
 E= -651.620897603155     Delta-E=       -0.004941916222 Rises=F Damp=F
 DIIS: error= 4.22D-04 at cycle   5 NSaved=   5.
 NSaved= 5 IEnMin= 5 EnMin= -651.620897603155     IErMin= 5 ErrMin= 4.22D-04
 ErrMax= 4.22D-04  0.00D+00 EMaxC= 1.00D-01 BMatC= 1.59D-04 BMatP= 5.89D-03
 IDIUse=3 WtCom= 9.96D-01 WtEn= 4.22D-03
 Coeff-Com: -0.825D-03 0.206D-01 0.101D+00 0.245D+00 0.634D+00
 Coeff-En:   0.000D+00 0.000D+00 0.000D+00 0.000D+00 0.100D+01
 Coeff:     -0.822D-03 0.205D-01 0.101D+00 0.244D+00 0.636D+00
 Gap=     0.179 Goal=   None    Shift=    0.000
 RMSDP=9.50D-05 MaxDP=2.87D-03 DE=-4.94D-03 OVMax= 8.59D-03

 Cycle   6  Pass 1  IDiag  1:
 RMSU=  5.50D-05    CP:  9.73D-01  9.21D-01  7.71D-01  6.12D-01  7.40D-01
 E= -651.621014212829     Delta-E=       -0.000116609674 Rises=F Damp=F
 DIIS: error= 2.07D-04 at cycle   6 NSaved=   6.
 NSaved= 6 IEnMin= 6 EnMin= -651.621014212829     IErMin= 6 ErrMin= 2.07D-04
 ErrMax= 2.07D-04  0.00D+00 EMaxC= 1.00D-01 BMatC= 4.18D-05 BMatP= 1.59D-04
 IDIUse=3 WtCom= 9.98D-01 WtEn= 2.07D-03
 Coeff-Com: -0.488D-03 0.112D-03 0.332D-01 0.974D-01 0.397D+00 0.473D+00
 Coeff-En:   0.000D+00 0.000D+00 0.000D+00 0.000D+00 0.210D+00 0.790D+00
 Coeff:     -0.487D-03 0.111D-03 0.332D-01 0.972D-01 0.396D+00 0.474D+00
 Gap=     0.179 Goal=   None    Shift=    0.000
 RMSDP=3.14D-05 MaxDP=1.39D-03 DE=-1.17D-04 OVMax= 3.76D-03

 Cycle   7  Pass 1  IDiag  1:
 RMSU=  1.41D-05    CP:  9.73D-01  9.21D-01  7.73D-01  6.10D-01  7.67D-01
                    CP:  5.14D-01
 E= -651.621056049192     Delta-E=       -0.000041836363 Rises=F Damp=F
 DIIS: error= 3.68D-05 at cycle   7 NSaved=   7.
 NSaved= 7 IEnMin= 7 EnMin= -651.621056049192     IErMin= 7 ErrMin= 3.68D-05
 ErrMax= 3.68D-05  0.00D+00 EMaxC= 1.00D-01 BMatC= 1.57D-06 BMatP= 4.18D-05
 IDIUse=1 WtCom= 1.00D+00 WtEn= 0.00D+00
 Coeff-Com: -0.149D-03-0.133D-02 0.106D-01 0.329D-01 0.162D+00 0.242D+00
 Coeff-Com:  0.554D+00
 Coeff:     -0.149D-03-0.133D-02 0.106D-01 0.329D-01 0.162D+00 0.242D+00
 Coeff:      0.554D+00
 Gap=     0.179 Goal=   None    Shift=    0.000
 RMSDP=7.19D-06 MaxDP=2.25D-04 DE=-4.18D-05 OVMax= 4.44D-04

 Cycle   8  Pass 1  IDiag  1:
 RMSU=  4.33D-06    CP:  9.73D-01  9.20D-01  7.74D-01  6.12D-01  7.66D-01
                    CP:  5.28D-01  6.55D-01
 E= -651.621057487776     Delta-E=       -0.000001438584 Rises=F Damp=F
 DIIS: error= 9.47D-06 at cycle   8 NSaved=   8.
 NSaved= 8 IEnMin= 8 EnMin= -651.621057487776     IErMin= 8 ErrMin= 9.47D-06
 ErrMax= 9.47D-06  0.00D+00 EMaxC= 1.00D-01 BMatC= 8.75D-08 BMatP= 1.57D-06
 IDIUse=1 WtCom= 1.00D+00 WtEn= 0.00D+00
 Coeff-Com:  0.205D-04-0.676D-03 0.178D-02 0.540D-02 0.359D-01 0.618D-01
 Coeff-Com:  0.232D+00 0.663D+00
 Coeff:      0.205D-04-0.676D-03 0.178D-02 0.540D-02 0.359D-01 0.618D-01
 Coeff:      0.232D+00 0.663D+00
 Gap=     0.179 Goal=   None    Shift=    0.000
 RMSDP=2.15D-06 MaxDP=1.10D-04 DE=-1.44D-06 OVMax= 4.30D-05

 Cycle   9  Pass 1  IDiag  1:
 RMSU=  1.41D-06    CP:  9.72D-01  9.20D-01  7.74D-01  6.11D-01  7.69D-01
                    CP:  5.34D-01  6.78D-01  7.73D-01
 E= -651.621057559570     Delta-E=       -0.000000071794 Rises=F Damp=F
 DIIS: error= 4.42D-06 at cycle   9 NSaved=   9.
 NSaved= 9 IEnMin= 9 EnMin= -651.621057559570     IErMin= 9 ErrMin= 4.42D-06
 ErrMax= 4.42D-06  0.00D+00 EMaxC= 1.00D-01 BMatC= 1.19D-08 BMatP= 8.75D-08
 IDIUse=1 WtCom= 1.00D+00 WtEn= 0.00D+00
 Coeff-Com:  0.265D-04-0.282D-03 0.270D-03 0.619D-03 0.832D-02 0.154D-01
 Coeff-Com:  0.818D-01 0.345D+00 0.549D+00
 Coeff:      0.265D-04-0.282D-03 0.270D-03 0.619D-03 0.832D-02 0.154D-01
 Coeff:      0.818D-01 0.345D+00 0.549D+00
 Gap=     0.179 Goal=   None    Shift=    0.000
 RMSDP=7.15D-07 MaxDP=3.08D-05 DE=-7.18D-08 OVMax= 2.04D-05

 Cycle  10  Pass 1  IDiag  1:
 RMSU=  4.50D-07    CP:  9.72D-01  9.20D-01  7.74D-01  6.11D-01  7.69D-01
                    CP:  5.34D-01  6.85D-01  8.20D-01  6.72D-01
 E= -651.621057567562     Delta-E=       -0.000000007992 Rises=F Damp=F
 DIIS: error= 2.39D-06 at cycle  10 NSaved=  10.
 NSaved=10 IEnMin=10 EnMin= -651.621057567562     IErMin=10 ErrMin= 2.39D-06
 ErrMax= 2.39D-06  0.00D+00 EMaxC= 1.00D-01 BMatC= 2.11D-09 BMatP= 1.19D-08
 IDIUse=1 WtCom= 1.00D+00 WtEn= 0.00D+00
 Coeff-Com:  0.163D-04-0.715D-04-0.113D-03-0.510D-03-0.499D-03-0.629D-03
 Coeff-Com:  0.138D-01 0.108D+00 0.329D+00 0.550D+00
 Coeff:      0.163D-04-0.715D-04-0.113D-03-0.510D-03-0.499D-03-0.629D-03
 Coeff:      0.138D-01 0.108D+00 0.329D+00 0.550D+00
 Gap=     0.179 Goal=   None    Shift=    0.000
 RMSDP=2.90D-07 MaxDP=1.42D-05 DE=-7.99D-09 OVMax= 9.36D-06

 Cycle  11  Pass 1  IDiag  1:
 RMSU=  1.70D-07    CP:  9.72D-01  9.20D-01  7.74D-01  6.11D-01  7.69D-01
                    CP:  5.33D-01  6.87D-01  8.34D-01  7.21D-01  6.01D-01
 E= -651.621057569066     Delta-E=       -0.000000001505 Rises=F Damp=F
 DIIS: error= 7.12D-07 at cycle  11 NSaved=  11.
 NSaved=11 IEnMin=11 EnMin= -651.621057569066     IErMin=11 ErrMin= 7.12D-07
 ErrMax= 7.12D-07  0.00D+00 EMaxC= 1.00D-01 BMatC= 2.23D-10 BMatP= 2.11D-09
 IDIUse=1 WtCom= 1.00D+00 WtEn= 0.00D+00
 Coeff-Com:  0.711D-05-0.147D-04-0.811D-04-0.333D-03-0.967D-03-0.185D-02
 Coeff-Com:  0.144D-03 0.264D-01 0.130D+00 0.315D+00 0.531D+00
 Coeff:      0.711D-05-0.147D-04-0.811D-04-0.333D-03-0.967D-03-0.185D-02
 Coeff:      0.144D-03 0.264D-01 0.130D+00 0.315D+00 0.531D+00
 Gap=     0.179 Goal=   None    Shift=    0.000
 RMSDP=9.28D-08 MaxDP=4.41D-06 DE=-1.50D-09 OVMax= 2.85D-06

 Cycle  12  Pass 1  IDiag  1:
 RMSU=  6.23D-08    CP:  9.72D-01  9.20D-01  7.74D-01  6.11D-01  7.69D-01
                    CP:  5.33D-01  6.87D-01  8.37D-01  7.27D-01  6.75D-01
                    CP:  7.10D-01
 E= -651.621057569246     Delta-E=       -0.000000000180 Rises=F Damp=F
 DIIS: error= 1.58D-07 at cycle  12 NSaved=  12.
 NSaved=12 IEnMin=12 EnMin= -651.621057569246     IErMin=12 ErrMin= 1.58D-07
 ErrMax= 1.58D-07  0.00D+00 EMaxC= 1.00D-01 BMatC= 1.96D-11 BMatP= 2.23D-10
 IDIUse=1 WtCom= 1.00D+00 WtEn= 0.00D+00
 Coeff-Com:  0.172D-05 0.587D-06-0.256D-04-0.109D-03-0.417D-03-0.912D-03
 Coeff-Com: -0.155D-02-0.698D-03 0.247D-01 0.938D-01 0.277D+00 0.608D+00
 Coeff:      0.172D-05 0.587D-06-0.256D-04-0.109D-03-0.417D-03-0.912D-03
 Coeff:     -0.155D-02-0.698D-03 0.247D-01 0.938D-01 0.277D+00 0.608D+00
 Gap=     0.179 Goal=   None    Shift=    0.000
 RMSDP=2.71D-08 MaxDP=1.07D-06 DE=-1.80D-10 OVMax= 7.88D-07

 Cycle  13  Pass 1  IDiag  1:
 RMSU=  1.45D-08    CP:  9.72D-01  9.20D-01  7.74D-01  6.11D-01  7.69D-01
                    CP:  5.33D-01  6.87D-01  8.38D-01  7.33D-01  6.84D-01
                    CP:  7.49D-01  7.76D-01
 E= -651.621057569260     Delta-E=       -0.000000000014 Rises=F Damp=F
 DIIS: error= 3.55D-08 at cycle  13 NSaved=  13.
 NSaved=13 IEnMin=13 EnMin= -651.621057569260     IErMin=13 ErrMin= 3.55D-08
 ErrMax= 3.55D-08  0.00D+00 EMaxC= 1.00D-01 BMatC= 1.57D-12 BMatP= 1.96D-11
 IDIUse=1 WtCom= 1.00D+00 WtEn= 0.00D+00
 Coeff-Com:  0.390D-06 0.111D-05-0.507D-05-0.262D-04-0.113D-03-0.295D-03
 Coeff-Com: -0.650D-03-0.232D-02 0.199D-02 0.215D-01 0.956D-01 0.299D+00
 Coeff-Com:  0.585D+00
 Coeff:      0.390D-06 0.111D-05-0.507D-05-0.262D-04-0.113D-03-0.295D-03
 Coeff:     -0.650D-03-0.232D-02 0.199D-02 0.215D-01 0.956D-01 0.299D+00
 Coeff:      0.585D+00
 Gap=     0.179 Goal=   None    Shift=    0.000
 RMSDP=7.18D-09 MaxDP=1.96D-07 DE=-1.36D-11 OVMax= 2.52D-07

 Error on total polarization charges =  0.00862
 SCF Done:  E(RB3LYP) =  -651.621057569     A.U. after   13 cycles
            NFock= 13  Conv=0.72D-08     -V/T= 2.0094
 KE= 6.455355451096D+02 PE=-3.400923020791D+03 EE= 1.161679327445D+03
 Leave Link  502 at Sat Jan 24 09:59:29 2026, MaxMem=  4294967296 cpu:             253.0 elap:              17.0
 (Enter /root/g16/l801.exe)
 DoSCS=F DFT=T ScalE2(SS,OS)=  1.000000  1.000000
 Range of M.O.s used for correlation:     1   256
 NBasis=   256 NAE=    51 NBE=    51 NFC=     0 NFV=     0
 NROrb=    256 NOA=    51 NOB=    51 NVA=   205 NVB=   205
 Leave Link  801 at Sat Jan 24 09:59:29 2026, MaxMem=  4294967296 cpu:               0.1 elap:               0.0
 (Enter /root/g16/l1101.exe)
 Using compressed storage, NAtomX=    26.
 Will process     27 centers per pass.
   1 Symmetry operations used in ECPInt.
 ECPInt:  NShTT=    7260 NPrTT=   26324 LenC2=    7127 LenP2D=   19925.
 LDataN:  DoStor=T MaxTD1= 5 Len=  102
 R6Disp: Adding Grimme-D3(BJ) dispersion energy 1st derivatives to the gradient.
 Leave Link 1101 at Sat Jan 24 09:59:30 2026, MaxMem=  4294967296 cpu:               2.9 elap:               0.2
 (Enter /root/g16/l1102.exe)
 Symmetrizing basis deriv contribution to polar:
 IMax=3 JMax=2 DiffMx= 0.00D+00
 Leave Link 1102 at Sat Jan 24 09:59:30 2026, MaxMem=  4294967296 cpu:               0.2 elap:               0.0
 (Enter /root/g16/l1110.exe)
 Forming Gx(P) for the SCF density, NAtomX=    26.
 Integral derivatives from FoFJK, PRISM(SPDF).
 Do as many integral derivatives as possible in FoFJK.
 G2DrvN: MDV=    4294965288.
 G2DrvN: will do    27 centers at a time, making    1 passes.
 Calling FoFCou, ICntrl=  3107 FMM=F I1Cent=   0 AccDes= 0.00D+00.
 FoFJK:  IHMeth= 1 ICntrl=    3107 DoSepK=F KAlg= 0 I1Cent=           0 FoldK=F
 IRaf=         0 NMat=       1 IRICut=       1 DoRegI=T DoRafI=F ISym2E= 0 IDoP0=0 IntGTp=1.
 FoFCou: FMM=F IPFlag=           0 FMFlag=      100000 FMFlg1=           0
         NFxFlg=           0 DoJE=F BraDBF=F KetDBF=F FulRan=T
         wScrn=  0.000000 ICntrl=      3107 IOpCl=  0 I1Cent=           0 NGrid=           0
         NMat0=    1 NMatS0=      1 NMatT0=    0 NMatD0=    1 NMtDS0=    0 NMtDT0=    0
 Symmetry not used in FoFCou.
 NEqPCM:  Using equilibrium solvation (IEInf=0, Eps=  20.4930, EpsInf=   1.8463)
 G2PCM: DoFxE=T DoFxN=T DoGrad=T DoDP/DQ/DG/TGxP=FFFF NFrqRd=   0 IEInf=0 SqF1=F DoCFld=F IF1Alg=4.
 GePol: Maximum number of non-zero 1st derivatives   =     229
 End of G2Drv F.D. properties file   721 does not exist.
 End of G2Drv F.D. properties file   722 does not exist.
 End of G2Drv F.D. properties file   788 does not exist.
 Leave Link 1110 at Sat Jan 24 09:59:52 2026, MaxMem=  4294967296 cpu:             371.7 elap:              21.9
 (Enter /root/g16/l1002.exe)
 Minotr:  Closed shell wavefunction.
          IDoAtm=11111111111111111111111111
 NEqPCM:  Using equilibrium solvation (IEInf=0, Eps=  20.4930, EpsInf=   1.8463)
          Direct CPHF calculation.
          Differentiating once with respect to nuclear coordinates.
          Requested convergence is 1.0D-08 RMS, and 1.0D-07 maximum.
          Secondary convergence is 1.0D-12 RMS, and 1.0D-12 maximum.
          NewPWx=T KeepS1=F KeepF1=F KeepIn=T MapXYZ=F SortEE=F KeepMc=T.
         7756 words used for storage of precomputed grid.
 Keep R1 ints in memory in canonical form, NReq=558668828.
 FoFCou: FMM=F IPFlag=           0 FMFlag=           0 FMFlg1=           0
         NFxFlg=           0 DoJE=F BraDBF=F KetDBF=F FulRan=T
         wScrn=  0.000000 ICntrl=       600 IOpCl=  0 I1Cent=           0 NGrid=           0
         NMat0=    1 NMatS0=  32896 NMatT0=    0 NMatD0=    1 NMtDS0=    0 NMtDT0=    0
 Symmetry not used in FoFCou.
 Two-electron integral symmetry not used.
          MDV=    4294967296 using IRadAn=       1.
          Solving linear equations simultaneously, MaxMat=       0.
          There are    81 degrees of freedom in the 1st order CPHF.  IDoFFX=6 NUNeed=     0.
     75 vectors produced by pass  0 Test12= 1.29D-14 1.23D-09 XBig12= 1.29D-01 1.07D-01.
 AX will form    75 AO Fock derivatives at one time.
     75 vectors produced by pass  1 Test12= 1.29D-14 1.23D-09 XBig12= 4.02D-02 6.70D-02.
     75 vectors produced by pass  2 Test12= 1.29D-14 1.23D-09 XBig12= 4.09D-04 2.43D-03.
     75 vectors produced by pass  3 Test12= 1.29D-14 1.23D-09 XBig12= 1.77D-06 1.66D-04.
     75 vectors produced by pass  4 Test12= 1.29D-14 1.23D-09 XBig12= 5.20D-09 8.65D-06.
     53 vectors produced by pass  5 Test12= 1.29D-14 1.23D-09 XBig12= 6.42D-12 3.22D-07.
     13 vectors produced by pass  6 Test12= 1.29D-14 1.23D-09 XBig12= 5.85D-15 6.37D-09.
 InvSVY:  IOpt=1 It=  1 EMax= 3.33D-16
 Solved reduced A of dimension   441 with    81 vectors.
 End of Minotr F.D. properties file   721 does not exist.
 End of Minotr F.D. properties file   722 does not exist.
 End of Minotr F.D. properties file   788 does not exist.
 Leave Link 1002 at Sat Jan 24 10:00:23 2026, MaxMem=  4294967296 cpu:             501.7 elap:              31.5
 (Enter /root/g16/l601.exe)
 Copying SCF densities to generalized density rwf, IOpCl= 0 IROHF=0.

 **********************************************************************

            Population analysis using the SCF density.

 **********************************************************************

 Orbital symmetries:
       Occupied  (A) (A) (A) (A) (A) (A) (A) (A) (A) (A) (A) (A)
                 (A) (A) (A) (A) (A) (A) (A) (A) (A) (A) (A) (A)
                 (A) (A) (A) (A) (A) (A) (A) (A) (A) (A) (A) (A)
                 (A) (A) (A) (A) (A) (A) (A) (A) (A) (A) (A) (A)
                 (A) (A) (A)
       Virtual   (A) (A) (A) (A) (A) (A) (A) (A) (A) (A) (A) (A)
                 (A) (A) (A) (A) (A) (A) (A) (A) (A) (A) (A) (A)
                 (A) (A) (A) (A) (A) (A) (A) (A) (A) (A) (A) (A)
                 (A) (A) (A) (A) (A) (A) (A) (A) (A) (A) (A) (A)
                 (A) (A) (A) (A) (A) (A) (A) (A) (A) (A) (A) (A)
                 (A) (A) (A) (A) (A) (A) (A) (A) (A) (A) (A) (A)
                 (A) (A) (A) (A) (A) (A) (A) (A) (A) (A) (A) (A)
                 (A) (A) (A) (A) (A) (A) (A) (A) (A) (A) (A) (A)
                 (A) (A) (A) (A) (A) (A) (A) (A) (A) (A) (A) (A)
                 (A) (A) (A) (A) (A) (A) (A) (A) (A) (A) (A) (A)
                 (A) (A) (A) (A) (A) (A) (A) (A) (A) (A) (A) (A)
                 (A) (A) (A) (A) (A) (A) (A) (A) (A) (A) (A) (A)
                 (A) (A) (A) (A) (A) (A) (A) (A) (A) (A) (A) (A)
                 (A) (A) (A) (A) (A) (A) (A) (A) (A) (A) (A) (A)
                 (A) (A) (A) (A) (A) (A) (A) (A) (A) (A) (A) (A)
                 (A) (A) (A) (A) (A) (A) (A) (A) (A) (A) (A) (A)
                 (A) (A) (A) (A) (A) (A) (A) (A) (A) (A) (A) (A)
                 (A)
 The electronic state is 1-A.
 Alpha  occ. eigenvalues --  -19.15262 -19.13327 -19.12859 -10.28345 -10.27371
 Alpha  occ. eigenvalues --  -10.25698 -10.24561 -10.22266 -10.21093 -10.20585
 Alpha  occ. eigenvalues --  -10.20112 -10.20023 -10.19502 -10.19478  -1.06904
 Alpha  occ. eigenvalues --   -1.04406  -1.03296  -0.85410  -0.80103  -0.79247
 Alpha  occ. eigenvalues --   -0.76695  -0.72220  -0.64711  -0.63891  -0.62940
 Alpha  occ. eigenvalues --   -0.57569  -0.55608  -0.54094  -0.51691  -0.50483
 Alpha  occ. eigenvalues --   -0.48846  -0.46870  -0.45411  -0.44809  -0.44255
 Alpha  occ. eigenvalues --   -0.43551  -0.42958  -0.42393  -0.39880  -0.39657
 Alpha  occ. eigenvalues --   -0.39032  -0.37113  -0.36812  -0.35840  -0.35349
 Alpha  occ. eigenvalues --   -0.35088  -0.33450  -0.30469  -0.27793  -0.25923
 Alpha  occ. eigenvalues --   -0.24328
 Alpha virt. eigenvalues --   -0.06425  -0.03045   0.03795   0.05082   0.06834
 Alpha virt. eigenvalues --    0.07853   0.09149   0.09746   0.10920   0.11889
 Alpha virt. eigenvalues --    0.12455   0.13767   0.13976   0.15163   0.15716
 Alpha virt. eigenvalues --    0.15969   0.17839   0.19620   0.19966   0.21131
 Alpha virt. eigenvalues --    0.22574   0.23255   0.25757   0.26346   0.26975
 Alpha virt. eigenvalues --    0.27560   0.30258   0.33459   0.33996   0.35936
 Alpha virt. eigenvalues --    0.37137   0.40128   0.43677   0.44139   0.45082
 Alpha virt. eigenvalues --    0.47080   0.48661   0.49633   0.49908   0.51217
 Alpha virt. eigenvalues --    0.52255   0.54121   0.56085   0.56931   0.57206
 Alpha virt. eigenvalues --    0.57934   0.58407   0.59492   0.60804   0.61532
 Alpha virt. eigenvalues --    0.62229   0.62916   0.63526   0.64217   0.64543
 Alpha virt. eigenvalues --    0.65401   0.65613   0.66299   0.66820   0.67447
 Alpha virt. eigenvalues --    0.67884   0.68761   0.69500   0.70346   0.70487
 Alpha virt. eigenvalues --    0.71158   0.72379   0.72829   0.73550   0.75675
 Alpha virt. eigenvalues --    0.77140   0.78458   0.80427   0.81009   0.85133
 Alpha virt. eigenvalues --    0.87740   0.88322   0.90195   0.91816   0.93632
 Alpha virt. eigenvalues --    0.94015   1.00223   1.01318   1.06473   1.08892
 Alpha virt. eigenvalues --    1.11151   1.13644   1.15061   1.16441   1.17244
 Alpha virt. eigenvalues --    1.19220   1.20043   1.22674   1.26220   1.29787
 Alpha virt. eigenvalues --    1.31258   1.34072   1.36508   1.38965   1.39998
 Alpha virt. eigenvalues --    1.41156   1.44112   1.47055   1.49357   1.52450
 Alpha virt. eigenvalues --    1.54509   1.55625   1.56815   1.58046   1.60550
 Alpha virt. eigenvalues --    1.62417   1.65316   1.65916   1.69395   1.70066
 Alpha virt. eigenvalues --    1.71264   1.72241   1.73602   1.74308   1.75419
 Alpha virt. eigenvalues --    1.76169   1.76987   1.78565   1.79696   1.80363
 Alpha virt. eigenvalues --    1.80900   1.82458   1.83214   1.83875   1.85537
 Alpha virt. eigenvalues --    1.86995   1.88423   1.89521   1.90695   1.91180
 Alpha virt. eigenvalues --    1.92091   1.93682   1.96513   1.97321   1.98463
 Alpha virt. eigenvalues --    2.00350   2.02249   2.04108   2.05232   2.06901
 Alpha virt. eigenvalues --    2.08220   2.10645   2.12675   2.13889   2.15600
 Alpha virt. eigenvalues --    2.18099   2.18872   2.21062   2.22050   2.24941
 Alpha virt. eigenvalues --    2.27254   2.28128   2.32885   2.33432   2.35401
 Alpha virt. eigenvalues --    2.36695   2.38277   2.40360   2.45236   2.46123
 Alpha virt. eigenvalues --    2.47794   2.49781   2.52374   2.55066   2.57042
 Alpha virt. eigenvalues --    2.57493   2.62734   2.63319   2.65225   2.66828
 Alpha virt. eigenvalues --    2.69079   2.71109   2.72301   2.74674   2.76513
 Alpha virt. eigenvalues --    2.77916   2.81051   2.83587   2.88420   2.89824
 Alpha virt. eigenvalues --    2.90184   2.94113   2.94385   2.96948   2.98570
 Alpha virt. eigenvalues --    3.00184   3.03709   3.05130   3.07245   3.10485
 Alpha virt. eigenvalues --    3.14371   3.15870   3.17377   3.22557   3.31173
 Alpha virt. eigenvalues --    3.37019   3.41042   3.57664   3.61812   3.63986
          Condensed to atoms (all electrons):
               1          2          3          4          5          6
     1  O    7.657116   0.730071  -0.097118   0.006902  -0.000097   0.000002
     2  C    0.730071   4.872850   0.182139   0.074721   0.008907   0.000004
     3  C   -0.097118   0.182139   5.455049   0.304364  -0.049094  -0.003017
     4  C    0.006902   0.074721   0.304364   5.520196   0.351144  -0.049204
     5  C   -0.000097   0.008907  -0.049094   0.351144   4.616258   0.384917
     6  C    0.000002   0.000004  -0.003017  -0.049204   0.384917   4.670555
     7  C    0.000002  -0.001428   0.003874   0.004369  -0.054324   0.364040
     8  C   -0.000012   0.001826  -0.003383   0.005670  -0.015437  -0.021493
     9  O   -0.000000  -0.000020   0.000009  -0.000226  -0.000016   0.002025
    10  C    0.000242  -0.014456  -0.001556  -0.046122  -0.001565   0.018984
    11  C    0.000450  -0.056796   0.032979  -0.049463   0.001100  -0.002256
    12  C   -0.086305   0.235594  -0.169215   0.006609  -0.001978   0.000532
    13  O    0.001445  -0.024506  -0.000566  -0.052349   0.005003  -0.000290
    14  C    0.000496  -0.054194   0.009264   0.110030  -0.070569  -0.003058
    15  H    0.005592  -0.050984   0.409702  -0.056827  -0.021834   0.000722
    16  H   -0.000010   0.000804  -0.022379  -0.007356   0.356606  -0.009238
    17  H    0.000002  -0.000816   0.003493   0.006586   0.331553  -0.007469
    18  H    0.000000   0.000089  -0.000999  -0.024487   0.000241   0.365727
    19  H   -0.000000   0.000010   0.000162   0.008962  -0.005584   0.342318
    20  H   -0.000000   0.000034  -0.000063  -0.000695   0.007324  -0.000019
    21  H   -0.000012   0.000277  -0.002965   0.010576  -0.008857  -0.020681
    22  H   -0.000010   0.000316  -0.000442   0.010574  -0.000236  -0.001343
    23  H    0.001626   0.000177  -0.002051   0.005411   0.000627   0.000013
    24  H   -0.000215   0.003165  -0.001218   0.001250  -0.000049  -0.000013
    25  H    0.009028  -0.018598   0.014580   0.000468   0.000124  -0.000012
    26  H    0.000016   0.000855   0.006976  -0.034024   0.000838  -0.005110
               7          8          9         10         11         12
     1  O    0.000002  -0.000012  -0.000000   0.000242   0.000450  -0.086305
     2  C   -0.001428   0.001826  -0.000020  -0.014456  -0.056796   0.235594
     3  C    0.003874  -0.003383   0.000009  -0.001556   0.032979  -0.169215
     4  C    0.004369   0.005670  -0.000226  -0.046122  -0.049463   0.006609
     5  C   -0.054324  -0.015437  -0.000016  -0.001565   0.001100  -0.001978
     6  C    0.364040  -0.021493   0.002025   0.018984  -0.002256   0.000532
     7  C    4.914608   0.362559  -0.092165  -0.223168   0.009738  -0.000809
     8  C    0.362559   4.790914   0.724627   0.138680  -0.024727   0.009328
     9  O   -0.092165   0.724627   7.667718  -0.103327   0.000881   0.000080
    10  C   -0.223168   0.138680  -0.103327   5.682691   0.274454  -0.067900
    11  C    0.009738  -0.024727   0.000881   0.274454   4.822277   0.295739
    12  C   -0.000809   0.009328   0.000080  -0.067900   0.295739   5.090937
    13  O    0.000179   0.005022  -0.000021  -0.029868  -0.077685   0.282320
    14  C    0.011335  -0.005742   0.006408   0.134523  -0.004473  -0.052895
    15  H   -0.000290   0.000145   0.000001  -0.000628  -0.001349   0.017561
    16  H   -0.012129   0.000318   0.000000  -0.001364   0.000059  -0.000232
    17  H    0.007739   0.000225   0.000004   0.000208   0.000042   0.000199
    18  H   -0.043386   0.000879   0.000985  -0.011046   0.000651  -0.000215
    19  H    0.005586   0.003105  -0.000179   0.000064  -0.000012  -0.000005
    20  H    0.289495   0.007001   0.010877   0.017545  -0.000532   0.000015
    21  H    0.329969   0.002967   0.002179   0.006806   0.000243  -0.000451
    22  H    0.013724   0.012423   0.006365   0.266708   0.014963  -0.006628
    23  H    0.003219  -0.002664  -0.000220   0.000123   0.343329  -0.015982
    24  H   -0.000346   0.001322   0.001644   0.015816   0.305838   0.025898
    25  H    0.000031  -0.000393  -0.000005   0.005904   0.001221   0.313464
    26  H    0.000290  -0.001303   0.000012  -0.013184   0.012009   0.002111
              13         14         15         16         17         18
     1  O    0.001445   0.000496   0.005592  -0.000010   0.000002   0.000000
     2  C   -0.024506  -0.054194  -0.050984   0.000804  -0.000816   0.000089
     3  C   -0.000566   0.009264   0.409702  -0.022379   0.003493  -0.000999
     4  C   -0.052349   0.110030  -0.056827  -0.007356   0.006586  -0.024487
     5  C    0.005003  -0.070569  -0.021834   0.356606   0.331553   0.000241
     6  C   -0.000290  -0.003058   0.000722  -0.009238  -0.007469   0.365727
     7  C    0.000179   0.011335  -0.000290  -0.012129   0.007739  -0.043386
     8  C    0.005022  -0.005742   0.000145   0.000318   0.000225   0.000879
     9  O   -0.000021   0.006408   0.000001   0.000000   0.000004   0.000985
    10  C   -0.029868   0.134523  -0.000628  -0.001364   0.000208  -0.011046
    11  C   -0.077685  -0.004473  -0.001349   0.000059   0.000042   0.000651
    12  C    0.282320  -0.052895   0.017561  -0.000232   0.000199  -0.000215
    13  O    7.996075   0.280483  -0.000817  -0.000184   0.000108   0.000021
    14  C    0.280483   5.055300   0.010233   0.013370  -0.010162   0.019744
    15  H   -0.000817   0.010233   0.697806   0.007121   0.000711  -0.000017
    16  H   -0.000184   0.013370   0.007121   0.690103  -0.024408   0.007748
    17  H    0.000108  -0.010162   0.000711  -0.024408   0.667252  -0.012152
    18  H    0.000021   0.019744  -0.000017   0.007748  -0.012152   0.685160
    19  H   -0.000000  -0.000723  -0.000068  -0.013290  -0.002077  -0.021589
    20  H    0.000006  -0.000058  -0.000009   0.000273  -0.000381   0.000704
    21  H    0.000016  -0.006225   0.000198   0.005558   0.000600   0.008683
    22  H    0.003271  -0.007423   0.000029   0.000026  -0.000020  -0.000077
    23  H    0.004084  -0.015379  -0.000517  -0.000041  -0.000015  -0.000016
    24  H    0.001787   0.003327   0.000043  -0.000001   0.000003  -0.000011
    25  H   -0.017392   0.002210  -0.000550  -0.000003   0.000001   0.000001
    26  H   -0.020326   0.366686  -0.000339  -0.000325   0.004384   0.000047
              19         20         21         22         23         24
     1  O   -0.000000  -0.000000  -0.000012  -0.000010   0.001626  -0.000215
     2  C    0.000010   0.000034   0.000277   0.000316   0.000177   0.003165
     3  C    0.000162  -0.000063  -0.002965  -0.000442  -0.002051  -0.001218
     4  C    0.008962  -0.000695   0.010576   0.010574   0.005411   0.001250
     5  C   -0.005584   0.007324  -0.008857  -0.000236   0.000627  -0.000049
     6  C    0.342318  -0.000019  -0.020681  -0.001343   0.000013  -0.000013
     7  C    0.005586   0.289495   0.329969   0.013724   0.003219  -0.000346
     8  C    0.003105   0.007001   0.002967   0.012423  -0.002664   0.001322
     9  O   -0.000179   0.010877   0.002179   0.006365  -0.000220   0.001644
    10  C    0.000064   0.017545   0.006806   0.266708   0.000123   0.015816
    11  C   -0.000012  -0.000532   0.000243   0.014963   0.343329   0.305838
    12  C   -0.000005   0.000015  -0.000451  -0.006628  -0.015982   0.025898
    13  O   -0.000000   0.000006   0.000016   0.003271   0.004084   0.001787
    14  C   -0.000723  -0.000058  -0.006225  -0.007423  -0.015379   0.003327
    15  H   -0.000068  -0.000009   0.000198   0.000029  -0.000517   0.000043
    16  H   -0.013290   0.000273   0.005558   0.000026  -0.000041  -0.000001
    17  H   -0.002077  -0.000381   0.000600  -0.000020  -0.000015   0.000003
    18  H   -0.021589   0.000704   0.008683  -0.000077  -0.000016  -0.000011
    19  H    0.671116  -0.014976  -0.002752   0.000050   0.000011   0.000001
    20  H   -0.014976   0.690321  -0.012104  -0.000682  -0.000376   0.000011
    21  H   -0.002752  -0.012104   0.651116  -0.000127   0.000991  -0.000052
    22  H    0.000050  -0.000682  -0.000127   0.682626   0.006595  -0.017867
    23  H    0.000011  -0.000376   0.000991   0.006595   0.654641  -0.019860
    24  H    0.000001   0.000011  -0.000052  -0.017867  -0.019860   0.660412
    25  H    0.000000  -0.000000   0.000006   0.000303   0.005813  -0.015531
    26  H   -0.000020  -0.000003   0.000132  -0.012352  -0.000495  -0.000179
              25         26
     1  O    0.009028   0.000016
     2  C   -0.018598   0.000855
     3  C    0.014580   0.006976
     4  C    0.000468  -0.034024
     5  C    0.000124   0.000838
     6  C   -0.000012  -0.005110
     7  C    0.000031   0.000290
     8  C   -0.000393  -0.001303
     9  O   -0.000005   0.000012
    10  C    0.005904  -0.013184
    11  C    0.001221   0.012009
    12  C    0.313464   0.002111
    13  O   -0.017392  -0.020326
    14  C    0.002210   0.366686
    15  H   -0.000550  -0.000339
    16  H   -0.000003  -0.000325
    17  H    0.000001   0.004384
    18  H    0.000001   0.000047
    19  H    0.000000  -0.000020
    20  H   -0.000000  -0.000003
    21  H    0.000006   0.000132
    22  H    0.000303  -0.012352
    23  H    0.005813  -0.000495
    24  H   -0.015531  -0.000179
    25  H    0.695035  -0.000401
    26  H   -0.000401   0.672522
 Mulliken charges:
               1
     1  O   -0.229213
     2  C    0.109958
     3  C   -0.068525
     4  C   -0.107082
     5  C    0.164998
     6  C   -0.026634
     7  C    0.107290
     8  C    0.008144
     9  O   -0.227636
    10  C   -0.048565
    11  C    0.101319
    12  C    0.122230
    13  O   -0.355816
    14  C    0.207491
    15  H   -0.015633
    16  H    0.008975
    17  H    0.034389
    18  H    0.023315
    19  H    0.029891
    20  H    0.006292
    21  H    0.033912
    22  H    0.029235
    23  H    0.030958
    24  H    0.034825
    25  H    0.004697
    26  H    0.021185
 Sum of Mulliken charges =  -0.00000
 Mulliken charges with hydrogens summed into heavy atoms:
               1
     1  O   -0.229213
     2  C    0.109958
     3  C   -0.084158
     4  C   -0.107082
     5  C    0.208362
     6  C    0.026572
     7  C    0.147494
     8  C    0.008144
     9  O   -0.227636
    10  C   -0.019330
    11  C    0.167103
    12  C    0.126927
    13  O   -0.355816
    14  C    0.228676
 APT charges:
               1
     1  O    0.788343
     2  C   -0.908624
     3  C   -0.528858
     4  C   -0.345449
     5  C   -0.513092
     6  C   -0.695039
     7  C   -0.394203
     8  C   -1.156063
     9  O    0.694386
    10  C   -0.433668
    11  C   -0.451883
    12  C   -0.478644
    13  O   -0.146272
    14  C   -0.322558
    15  H    0.443329
    16  H    0.381967
    17  H    0.459203
    18  H    0.213738
    19  H    0.646992
    20  H    0.570891
    21  H    0.068634
    22  H    0.427665
    23  H    0.155051
    24  H    0.534983
    25  H    0.567726
    26  H    0.421442
 Sum of APT charges =  -0.00000
 APT charges with hydrogens summed into heavy atoms:
               1
     1  O    0.788343
     2  C   -0.908624
     3  C   -0.085529
     4  C   -0.345449
     5  C    0.328079
     6  C    0.165691
     7  C    0.245323
     8  C   -1.156063
     9  O    0.694386
    10  C   -0.006002
    11  C    0.238151
    12  C    0.089082
    13  O   -0.146272
    14  C    0.098885
 Electronic spatial extent (au):  <R**2>=           2277.6567
 Charge=             -0.0000 electrons
 Dipole moment (field-independent basis, Debye):
    X=              3.5346    Y=              2.8894    Z=              1.5709  Tot=              4.8281
 Quadrupole moment (field-independent basis, Debye-Ang):
   XX=            -97.8613   YY=            -80.3664   ZZ=            -83.8482
   XY=             12.7892   XZ=             -1.5169   YZ=             -1.8495
 Traceless Quadrupole moment (field-independent basis, Debye-Ang):
   XX=            -10.5027   YY=              6.9923   ZZ=              3.5104
   XY=             12.7892   XZ=             -1.5169   YZ=             -1.8495
 Octapole moment (field-independent basis, Debye-Ang**2):
  XXX=             34.9061  YYY=             11.5265  ZZZ=              0.2115  XYY=            -19.9049
  XXY=             14.8824  XXZ=             26.4053  XZZ=             17.9350  YZZ=              0.8024
  YYZ=              4.8409  XYZ=             -6.5571
 Hexadecapole moment (field-independent basis, Debye-Ang**3):
 XXXX=          -1771.2720 YYYY=           -893.1295 ZZZZ=           -425.1274 XXXY=             74.9449
 XXXZ=            -76.8045 YYYX=             49.1714 YYYZ=            -18.8371 ZZZX=              4.7973
 ZZZY=              6.7522 XXYY=           -444.6481 XXZZ=           -377.5655 YYZZ=           -212.9280
 XXYZ=            -13.7208 YYXZ=             15.0368 ZZXY=              0.7782
 N-N= 9.420870906674D+02 E-N=-3.400923010619D+03  KE= 6.455355451096D+02
  Exact polarizability:   0.000   0.000   0.000   0.000   0.000   0.000
 Approx polarizability: 201.245   2.621 159.562  30.285   0.618 156.304
 No NMR shielding tensors so no spin-rotation constants.
 Leave Link  601 at Sat Jan 24 10:00:23 2026, MaxMem=  4294967296 cpu:               1.5 elap:               0.1
 (Enter /root/g16/l701.exe)
 ... and contract with generalized density number  0.
 Compute integral second derivatives.
 R6Disp: Adding Grimme-D3(BJ) dispersion energy 2nd derivatives to the Hessian.
   1 Symmetry operations used in ECPInt.
 ECPInt:  NShTT=    7260 NPrTT=   26324 LenC2=    7127 LenP2D=   19925.
 LDataN:  DoStor=T MaxTD1= 6 Len=  172
 D2PCM: PCM CHGder 2nd derivatives, FixD1E=F FixD2E=F DoIter=F DoCFld=F I1PDM=0
 GePol: Maximum number of non-zero 2nd derivatives   =     229
 Leave Link  701 at Sat Jan 24 10:00:26 2026, MaxMem=  4294967296 cpu:              37.3 elap:               2.2
 (Enter /root/g16/l702.exe)
 L702 exits ... SP integral derivatives will be done elsewhere.
 Leave Link  702 at Sat Jan 24 10:00:26 2026, MaxMem=  4294967296 cpu:               0.1 elap:               0.0
 (Enter /root/g16/l703.exe)
 Integral derivatives from FoFJK, PRISM(SPDF).
 Compute integral second derivatives, UseDBF=F ICtDFT=           0.
 Calling FoFJK, ICntrl=    100147 FMM=F ISym2X=0 I1Cent= 0 IOpClX= 0 NMat=1 NMatS=1 NMatT=0.
 FoFJK:  IHMeth= 1 ICntrl=  100147 DoSepK=F KAlg= 0 I1Cent=           0 FoldK=F
 IRaf=         0 NMat=       1 IRICut=       1 DoRegI=T DoRafI=F ISym2E= 0 IDoP0=0 IntGTp=1.
 FoFCou: FMM=F IPFlag=           0 FMFlag=      100000 FMFlg1=         800
         NFxFlg=           0 DoJE=F BraDBF=F KetDBF=F FulRan=T
         wScrn=  0.000000 ICntrl=    100147 IOpCl=  0 I1Cent=           0 NGrid=           0
         NMat0=    1 NMatS0=      1 NMatT0=    0 NMatD0=    1 NMtDS0=    0 NMtDT0=    0
 Symmetry not used in FoFCou.
 Leave Link  703 at Sat Jan 24 10:00:58 2026, MaxMem=  4294967296 cpu:             524.8 elap:              32.9
 (Enter /root/g16/l716.exe)
 Dipole        = 1.39063599D+00 1.13678688D+00 6.18027139D-01
 Polarizability= 0.00000000D+00 0.00000000D+00 0.00000000D+00
                 0.00000000D+00 0.00000000D+00 0.00000000D+00
 ***** Axes restored to original set *****
 -------------------------------------------------------------------
 Center     Atomic                   Forces (Hartrees/Bohr)
 Number     Number              X              Y              Z
 -------------------------------------------------------------------
      1        8           0.005887220    0.001054083    0.004816785
      2        6           0.000932430   -0.003980191   -0.007519836
      3        6           0.004658969    0.003420538    0.001769731
      4        6          -0.004661959    0.005240611   -0.006962944
      5        6           0.000182724   -0.005589597    0.000141074
      6        6           0.006154921    0.000890755    0.005828405
      7        6          -0.006372073   -0.001017932   -0.002383771
      8        6           0.000496809    0.005104993   -0.002245161
      9        8          -0.002711612   -0.009309020    0.001386099
     10        6           0.000510002   -0.001521386   -0.001880349
     11        6           0.001785634    0.002939782   -0.002884081
     12        6           0.003765909   -0.002983792    0.005680411
     13        8           0.000625622    0.000728549   -0.003904327
     14        6          -0.000185250   -0.002050096   -0.000468072
     15        1          -0.001512987    0.006486791    0.006702278
     16        1          -0.000277525    0.004528879    0.004268048
     17        1          -0.000725912    0.004507475   -0.005932058
     18        1          -0.003403536   -0.001397198   -0.006627383
     19        1          -0.006114912    0.002188341    0.000066993
     20        1          -0.002395454   -0.002677775    0.003095774
     21        1           0.003284904    0.002183690    0.005927373
     22        1          -0.001600409   -0.001730013   -0.002111943
     23        1          -0.000064680   -0.000999617    0.006119927
     24        1           0.001088644   -0.006439249   -0.000309281
     25        1           0.004777397   -0.001004713    0.000601061
     26        1          -0.004124875    0.001426091   -0.003174756
 -------------------------------------------------------------------
 Cartesian Forces:  Max     0.009309020 RMS     0.003837604
 FormGI is forming the generalized inverse of G from B-inverse, IUseBI=4.
 Leave Link  716 at Sat Jan 24 10:00:58 2026, MaxMem=  4294967296 cpu:               0.3 elap:               0.0
 (Enter /root/g16/l103.exe)

 GradGradGradGradGradGradGradGradGradGradGradGradGradGradGradGradGradGrad
 Berny optimization.
 Red2BG is reusing G-inverse.
 Internal  Forces:  Max     0.012300249 RMS     0.002879114
 Search for a local minimum.
 Step number   1 out of a maximum of  156
 All quantities printed in internal units (Hartrees-Bohrs-Radians)
[...]
 5568,-0.22628387,0.10996938,0.06786777,-0.00335236,0.00206358,0.002106
 90,0.00103060,-0.00073804,-0.00105694,-0.00015750,0.00051284,0.0000765
 2,-0.00002691,-0.00030948,-0.00011863,-0.00002022,0.00003351,0.0000678
 6,0.00001563,-0.00010074,0.00003906,-0.00006454,0.00019621,0.00024504,
 0.00031776,-0.00018158,-0.00039505,-0.00008295,-0.00012815,0.00009604,
 0.00107899,0.00051006,-0.00035968,0.00038619,-0.00000043,0.00016421,0.
 00618673,-0.00341995,-0.00189771,0.24312932,-0.00056094,0.00010609,-0.
 00004173,0.00088347,-0.00039732,-0.00063610,-0.00114151,0.00123485,-0.
 00030453,-0.00222836,-0.00365992,0.00093772,-0.02166402,0.00950168,0.0
 0678453,0.11041335,-0.10832945,-0.04166796,0.01819308,-0.01480052,-0.0
 0580947,-0.00030246,0.00093074,0.00536333,-0.00018550,-0.00233252,-0.0
 0112790,-0.00016600,0.00017607,-0.00040811,-0.00026536,0.00006558,-0.0
 0006714,0.00000441,-0.00011787,0.00003875,0.00020659,0.00031048,0.0001
 6255,-0.00005867,-0.00038435,-0.00030978,-0.00006341,-0.00014411,0.000
 10989,0.00012923,0.00121203,0.00007186,0.00077049,0.00043018,0.0000200
 7,0.00960214,-0.00588210,-0.00362139,-0.11372278,0.12106128,0.00012015
 ,-0.00002536,0.00007182,-0.00013595,0.00011627,-0.00002137,0.00024682,
 -0.00006434,-0.00014607,-0.00026820,0.00020346,0.00049311,-0.00018448,
 -0.00201084,-0.00046654,0.07006095,-0.04204469,-0.07176490,-0.01860368
 ,0.01453927,0.00621608,-0.00058674,-0.00006400,-0.00421737,0.00038306,
 0.00198501,0.00079671,0.00004249,0.00019521,0.00029546,0.00006085,-0.0
 0008514,0.00002608,0.00003279,0.00008120,-0.00010769,0.00014309,-0.000
 17866,0.00024014,-0.00035983,0.00040528,-0.00023668,-0.00001007,-0.000
 00659,0.00002224,-0.00047042,0.00045608,0.00093912,0.00001396,-0.00014
 297,-0.00014567,0.02326299,-0.01332473,-0.00852619,-0.07358859,0.04078
 477,0.07463220,-0.00016722,-0.00000716,-0.00014437,0.00025412,-0.00002
 407,0.00016887,0.00001630,-0.00009556,0.00023715,-0.00021329,0.0002141
 9,-0.00012330,0.00040453,0.00130074,-0.00112888,0.00835971,0.00464385,
 -0.00374501,-0.24449922,-0.08216070,0.09030139,-0.01661610,-0.00724371
 ,0.00728825,0.00341590,-0.00101733,-0.00217338,0.00088642,0.00250774,0
 .00107858,0.00029032,0.00002343,0.00009496,0.00006948,-0.00002638,-0.0
 0002461,-0.00020730,-0.00014862,0.00003518,0.00035930,0.00023634,-0.00
 037374,0.00000091,0.00000459,-0.00002608,-0.00001400,0.00004334,-0.000
 00026,0.00022685,0.00031675,-0.00013939,-0.00005520,-0.00036374,0.0000
 6361,0.00135579,0.00001744,-0.00003831,0.25983474,-0.00018759,0.000081
 10,-0.00004487,0.00031370,-0.00029912,-0.00009365,-0.00028812,0.000293
 98,0.00003340,0.00103500,-0.00051604,0.00003508,0.00099663,-0.00191638
 ,0.00404620,-0.01767315,-0.00937583,0.00654027,-0.08603144,-0.07978520
 ,0.04080203,0.02588516,0.00638447,-0.01159100,-0.00094663,0.00193044,0
 .00011011,0.00043312,-0.00388754,-0.00166199,-0.00007932,0.00004277,-0
 .00013157,0.00000964,-0.00005083,0.00004901,-0.00000092,0.00018993,0.0
 0004678,-0.00028196,-0.00023068,0.00013494,0.00000644,0.00000417,0.000
 02283,0.00005154,0.00013886,-0.00012753,-0.00102516,-0.00098061,0.0002
 3817,0.00006587,0.00013195,0.00035739,-0.00053201,0.00053881,-0.000246
 18,0.08616461,0.09069810,0.00007684,0.00002353,0.00003839,-0.00004773,
 -0.00003783,-0.00001684,0.00020009,-0.00013687,0.00038921,-0.00095168,
 -0.00017053,-0.00020322,-0.00138880,0.00119674,-0.00215234,0.01604699,
 0.00689028,-0.00621698,0.08902835,0.03889655,-0.08672503,0.01650748,0.
 00292301,-0.00855504,-0.00321600,0.00256588,0.00047230,0.00070384,-0.0
 0219951,0.00042452,0.00031769,-0.00000085,-0.00029756,0.00002526,-0.00
 005170,-0.00000896,0.00017158,0.00001601,-0.00001486,-0.00036289,-0.00
 008841,0.00019759,0.00001304,0.00002992,0.00000915,0.00007287,0.000186
 80,0.00004187,0.00061054,0.00064388,0.00002939,-0.00005082,-0.00022024
 ,-0.00030215,-0.00000958,-0.00044784,0.00120926,-0.09814218,-0.0426188
 7,0.09167251,0.00030060,-0.00002808,0.00012922,-0.00048663,0.00016323,
 0.00003044,-0.00002908,-0.00039236,0.00020192,-0.00029341,-0.00052105,
 0.00086232,0.00002953,-0.00068405,0.00126681,-0.00195432,-0.00256090,-
 0.00444887,-0.12388498,-0.04948311,-0.10442986,0.01275678,0.00303280,0
 .01317008,-0.00129488,0.00220060,-0.00208452,-0.00195697,-0.00075966,-
 0.00234850,-0.00026129,0.00004971,0.00057808,-0.00021694,0.00018962,-0
 .00006554,0.00012077,-0.00006757,-0.00004836,-0.00006704,0.00015966,0.
 00022213,0.00001332,0.00001119,-0.00000590,0.00027691,0.00022890,-0.00
 006778,-0.00009242,0.00008202,-0.00004900,0.00005260,0.00086597,-0.000
 12502,-0.00017542,-0.00001264,0.00001952,-0.01298265,-0.00885819,-0.02
 012820,0.13030472,0.00007205,-0.00000855,0.00004203,-0.00006056,0.0000
 2862,-0.00003055,-0.00009877,-0.00004556,0.00029193,-0.00079029,-0.000
 19279,0.00036826,-0.00007996,0.00175145,0.00053504,0.01261680,0.008361
 28,0.02132708,-0.05408713,-0.07640881,-0.07832995,-0.01831716,-0.00966
 794,-0.01754197,0.00491486,-0.00326134,0.00196147,0.00175381,0.0003300
 1,0.00173113,0.00024455,-0.00000062,-0.00051140,0.00011550,-0.00002890
 ,0.00001371,0.00009637,-0.00004476,-0.00004690,0.00004058,-0.00005494,
 0.00015208,-0.00001354,-0.00000058,-0.00000642,0.00020714,-0.00031066,
 -0.00041011,0.00027711,0.00022669,-0.00019198,0.00115143,-0.00344096,0
 .00300261,-0.00001852,0.00038636,-0.00047739,-0.00429980,-0.00354561,-
 0.00726520,0.05636461,0.08589958,-0.00031687,0.00008134,-0.00017430,0.
 00060989,-0.00037286,0.00009202,-0.00006869,0.00008512,0.00038110,0.00
 015234,-0.00009647,-0.00028561,-0.00057484,-0.00100957,0.00124705,-0.0
 1020146,-0.00514221,-0.01827839,-0.10682925,-0.07247755,-0.18831957,-0
 .00795053,-0.00448963,-0.00950957,0.00112605,-0.00031418,0.00020236,0.
 00122773,-0.00001135,0.00111216,0.00016988,0.00006603,-0.00030141,0.00
 007224,-0.00005121,0.00001494,-0.00000175,0.00009411,0.00009209,-0.000
 11582,-0.00014260,-0.00026335,0.00001894,0.00004899,-0.00000400,0.0003
 6039,0.00048079,-0.00012180,-0.00022675,-0.00023806,0.00028088,-0.0013
 0251,0.00352683,-0.00169970,0.00000376,0.00013451,0.00023513,0.0063787
 6,0.00469674,0.01010611,0.11768057,0.07518109,0.20472789,-0.00023906,-
 0.00011298,-0.00022132,0.00014529,0.00046641,0.00019889,0.00008843,0.0
 0021624,-0.00010405,0.00020114,-0.00022259,0.00050399,-0.00001884,-0.0
 0017984,-0.00010356,0.00002362,-0.00006570,0.00008864,-0.00390338,-0.0
 0198732,0.00075821,-0.00152351,0.01849623,0.02336022,0.00116434,0.0008
 9385,-0.00274027,-0.04277096,-0.02004766,-0.01537968,-0.00586336,-0.01
 428995,-0.02104061,-0.00063644,0.00041341,-0.00145408,0.00116659,-0.00
 025718,0.00093716,-0.00075358,-0.00296614,-0.00295471,-0.00000278,-0.0
 0004729,0.00005544,0.00003841,-0.00000601,-0.00001080,0.00004168,0.000
 02868,-0.00001110,-0.00001836,0.00009342,-0.00007614,0.00003073,0.0001
 0000,-0.00006898,-0.00073179,0.00090046,0.00035766,0.00046315,-0.00029
 467,-0.00022295,0.05511462,-0.00089401,0.00027750,-0.00039168,0.001443
 27,-0.00129241,0.00033538,-0.00081189,-0.00012028,-0.00059166,-0.00203
 874,-0.00224682,0.00434957,-0.00020060,0.00009144,-0.00037524,-0.00019
 035,-0.00000839,-0.00007259,0.00007896,0.00039394,0.00019306,0.0022283
 8,0.00036450,0.00008605,-0.00194444,0.00001780,0.00204701,-0.02238677,
 -0.16868329,-0.13698618,0.00412919,0.00480871,0.00790565,-0.00004234,-
 0.00020304,0.00016481,0.00121270,0.00270137,0.00016680,-0.00200187,-0.
 02437839,-0.01836672,0.00006301,0.00030166,-0.00052887,0.00017552,-0.0
 0004552,-0.00009717,-0.00001151,0.00003258,0.00002616,0.00002790,0.000
 03518,0.00004820,0.00006923,0.00006573,-0.00001261,0.00001105,0.000063
 36,-0.00015943,-0.00014534,0.00000037,0.00001569,0.01930500,0.18496877
 ,0.00043200,-0.00019522,0.00019681,-0.00068383,0.00092055,-0.00012436,
 0.00063390,0.00015763,0.00088248,0.00163749,0.00142111,-0.00188651,0.0
 0011612,-0.00012338,0.00018237,0.00004428,0.00011296,-0.00022073,0.002
 25557,0.00171752,-0.00055663,-0.00109910,-0.01507300,-0.01431939,-0.00
 026878,0.00124114,0.00291789,-0.01661280,-0.13664818,-0.19018975,-0.00
 400226,-0.00752508,-0.01177094,-0.00005777,0.00033670,-0.00085250,-0.0
 0132258,-0.00037243,0.00060224,0.00226073,0.01452979,0.00956744,-0.000
 02812,-0.00019067,0.00033713,-0.00007155,0.00000061,0.00005541,0.00000
 117,-0.00004940,0.00000150,0.00000594,-0.00005565,0.00005488,-0.000034
 26,-0.00012024,0.00009011,0.00045882,-0.00063402,-0.00020809,-0.000278
 22,0.00023228,0.00011505,0.01920617,0.14066996,0.20308149,-0.00043645,
 0.00034747,-0.00054676,0.00191334,-0.00032700,0.00139579,-0.00052674,0
 .00011454,-0.00013197,0.00037854,0.00034573,0.00014531,0.00002684,-0.0
 0002032,-0.00003183,0.00005233,0.00007801,-0.00012177,-0.00041489,-0.0
 0008960,-0.00032979,0.00123396,-0.00008856,-0.00206440,0.00004016,-0.0
 0037483,0.00049950,0.00121984,-0.00495728,-0.02579618,-0.04873762,0.00
 430073,0.02800495,-0.00092424,0.00422187,0.01808935,-0.00119864,-0.003
 02581,0.00248948,-0.00188273,0.00003630,-0.00087561,0.00005023,-0.0000
 8561,0.00004166,0.00000565,-0.00000843,0.00000361,-0.00000947,-0.00002
 012,-0.00000560,0.00001777,-0.00000677,0.00005094,0.00001530,-0.000031
 50,0.00004115,0.00007885,0.00000244,0.00008375,-0.00049313,0.00014914,
 0.00006195,-0.00346824,0.00149578,-0.00260229,0.05456507,0.00019513,0.
 00006075,0.00011279,-0.00073081,-0.00066611,0.00139983,-0.00009244,-0.
 00045770,0.00009263,0.00027825,0.00005172,0.00002094,-0.00008265,-0.00
 006180,-0.00014102,0.00000281,0.00003057,0.00005340,-0.00020123,-0.000
 14336,0.00012600,-0.00018860,0.00125413,-0.00014806,0.00018654,-0.0002
 6012,0.00013199,-0.00225484,-0.00022457,0.00447995,0.00458987,-0.05178
 081,-0.03757335,0.00010979,0.00365139,0.01844340,-0.00046905,-0.004717
 00,0.00458695,-0.00125143,0.00009474,0.00106022,0.00000298,0.00009226,
 -0.00003149,0.00001369,-0.00001045,0.00000523,-0.00004536,0.00003052,0
 .00001299,-0.00001126,-0.00000565,-0.00001815,-0.00002484,-0.00000333,
 -0.00001276,-0.00009670,0.00004973,-0.00001023,0.00033271,-0.00004755,
 -0.00014548,-0.00031450,0.00036146,0.00006083,-0.00218673,0.05516939,0
 .00062486,0.00010719,0.00095398,-0.00100067,-0.00092254,-0.00146609,0.
 00047681,0.00008126,0.00062358,-0.00045687,-0.00039635,-0.00034692,0.0
 0006985,0.00003149,0.00009383,-0.00000136,-0.00001258,-0.00001031,-0.0
 0054003,-0.00026269,-0.00008399,0.00151850,0.00150904,-0.00080644,-0.0
 0025141,-0.00089454,0.00063009,-0.00012981,-0.00248426,-0.00822268,0.0
 2737917,-0.03507130,-0.31040262,0.00000487,-0.00137143,-0.00555423,-0.
 00008819,0.00216932,-0.00122519,0.00088259,-0.00030895,-0.00068533,-0.
 00000994,0.00006903,0.00000609,-0.00001792,0.00002403,0.00000279,0.000
 04772,-0.00002480,0.00000471,0.00004112,-0.00001570,0.00003823,0.00002
 008,0.00001903,0.00001076,-0.00006500,0.00007141,0.00004889,0.00005373
 ,-0.00005842,0.00012954,-0.00132866,0.00093194,-0.00040861,-0.02796867
 ,0.03599868,0.33135730,-0.00051387,-0.00043927,-0.00159486,-0.00202708
 ,-0.00004449,0.00412282,0.00105679,-0.00005365,-0.00029363,-0.00036811
 ,-0.00086101,-0.00079956,-0.00001326,-0.00016358,0.00019751,-0.0000345
 1,-0.00018444,0.00003921,0.00019358,0.00016514,0.00074323,0.00123117,0
 .00228646,-0.00229645,-0.00013051,-0.00146828,0.00014641,-0.01132098,0
 .02364344,0.00173517,-0.06638660,0.08076142,0.01793295,0.00316103,-0.0
 2432499,-0.00569766,0.00162579,0.00019097,0.00124051,-0.00470311,0.000
 14998,-0.00074416,0.00018979,-0.00003555,-0.00006793,-0.00001357,0.000
 01613,0.00001350,0.00008967,-0.00002539,0.00000273,0.00006892,-0.00001
 674,0.00001316,0.00000327,0.00004181,0.00001287,-0.00004226,0.00001775
 ,0.00006421,-0.00013431,0.00005696,0.00002246,0.00148251,-0.00006348,0
 .00047590,-0.00067507,0.00287375,0.00051483,0.07583111,-0.00036776,-0.
 00062281,-0.00122782,-0.00196048,0.00097047,0.00324944,0.00055707,0.00
 007245,-0.00008115,-0.00022009,0.00018154,-0.00012056,0.00002014,-0.00
 008151,0.00017116,-0.00005707,-0.00006567,-0.00003022,0.00008409,0.000
 09455,0.00010204,-0.00001708,-0.00009234,0.00053220,-0.00001096,0.0000
 7486,-0.00022658,-0.00073438,-0.00044701,-0.00111294,0.08116820,-0.293
 18215,-0.04829000,0.00376697,-0.01669545,-0.00544959,0.00114146,0.0001
 2620,0.00130225,-0.00063187,-0.00004126,0.00047762,0.00008858,-0.00003
 351,-0.00008014,0.00001888,-0.00001321,-0.00001647,0.00007175,-0.00001
 810,-0.00002269,-0.00001019,0.00000874,0.00000259,0.00002276,0.0000146
 0,-0.00000232,0.00002087,-0.00000675,-0.00001471,-0.00005982,0.0000237
 1,0.00002008,-0.00034247,0.00132863,-0.00006891,0.00060125,-0.00175988
 ,-0.00014445,-0.08337770,0.30893651,0.00043032,0.00008241,0.00083252,0
 .00045691,0.00061227,-0.00166608,0.00023172,-0.00035172,0.00064035,-0.
 00034447,-0.00056281,-0.00071592,-0.00000500,0.00004128,-0.00001759,0.
 00003484,-0.00005574,0.00000689,-0.00010468,-0.00005476,0.00016558,-0.
 00028880,0.00073880,-0.00090954,-0.00009644,-0.00017269,0.00004367,-0.
 00708187,0.01409850,0.00060201,0.01824699,-0.05126758,-0.05521779,-0.0
 0375366,0.01263666,0.00316147,0.00023493,-0.00051291,-0.00071442,-0.00
 208488,0.00146563,-0.00130999,-0.00000041,0.00005047,-0.00001039,-0.00
 000920,0.00000557,0.00001031,0.00000643,-0.00000969,0.00002274,0.00003
 768,-0.00001299,0.00002270,0.00000343,0.00000888,0.00002150,-0.0000162
 3,0.00001638,0.00005571,-0.00009975,0.00009597,0.00008392,-0.00025353,
 0.00100891,0.00118051,0.00948806,-0.02893477,-0.00432177,-0.01486041,0
 .05094950,0.05794772,0.00159183,0.00001516,0.00104384,0.00233665,-0.00
 261953,-0.00220735,0.00028989,-0.00067636,-0.00050164,-0.00013678,-0.0
 0024414,-0.00008732,-0.00002896,-0.00002281,0.00020111,0.00000416,0.00
 001461,0.00002727,-0.00001119,0.00001976,0.00009180,0.00031622,0.00002
 806,-0.00073862,-0.00031828,-0.00025706,0.00028629,-0.00110267,-0.0001
 1821,0.00068351,-0.00996108,0.00500444,0.00380774,-0.27066091,0.096133
 30,0.05585734,-0.01285114,0.00456238,-0.00307586,0.00147030,0.00098641
 ,-0.00207392,0.00017927,-0.00013210,0.00007893,-0.00005706,0.00004928,
 0.00003839,0.00001787,-0.00001195,-0.00000497,0.00003435,-0.00000890,0
 .00000577,-0.00002324,0.00000713,0.00000493,-0.00002677,0.00000931,0.0
 0002113,0.00000621,0.00001255,-0.00000506,-0.00009114,-0.00001542,-0.0
 0006664,-0.00113860,-0.00070560,0.00023786,0.00101157,0.00025952,-0.00
 039504,0.28973172,-0.00211349,0.00263693,0.00314043,0.02532540,-0.0103
 7390,-0.00674953,-0.00134298,-0.00322180,-0.00284897,-0.00047222,0.000
 35037,-0.00037954,0.00003988,0.00011759,0.00001362,0.00001111,-0.00013
 731,0.00008160,0.00002908,0.00008643,0.00023453,0.00028024,0.00022466,
 -0.00118336,-0.00025432,-0.00033555,0.00028207,-0.00347726,-0.00100891
 ,0.00113745,-0.01865308,0.00779233,0.00430374,0.09446039,-0.08631002,-
 0.02520169,0.01009527,-0.00284979,0.00176056,-0.00172400,-0.00092603,0
 .00184355,0.00077425,-0.00090573,0.00031584,-0.00001716,-0.00001303,-0
 .00001746,0.00004359,-0.00001067,0.00001787,0.00001952,-0.00000059,-0.
 00001953,0.00003028,0.00004520,-0.00001724,-0.00000791,0.00002981,0.00
 001826,-0.00006951,0.00002553,0.00003422,-0.00012955,0.00004774,-0.000
 10787,-0.00090819,-0.00047853,0.00067552,0.00021562,0.00145197,-0.0003
 1863,-0.10252454,0.09366600,-0.00115753,0.00208793,0.00143042,0.018847
 07,-0.00677572,-0.00138157,-0.00089584,-0.00309641,-0.00178131,-0.0009
 9809,-0.00018798,-0.00053267,0.00013710,0.00021497,0.00024949,-0.00001
 098,-0.00000232,-0.00006973,-0.00001319,-0.00002966,-0.00015514,0.0000
 1025,-0.00023766,0.00055446,0.00002074,0.00009114,-0.00009051,0.001096
 88,0.00090270,-0.00126734,0.00900587,-0.00403703,0.00025154,0.06456466
 ,-0.02827343,-0.06405878,-0.03491554,0.01343495,0.00341745,-0.00125791
 ,0.00275550,-0.00528610,0.00072667,-0.00063878,0.00025642,-0.00008939,
 0.00006834,0.00002490,0.00005579,-0.00005152,-0.00000725,0.00004278,0.
 00002216,0.00003951,0.00002741,0.00002234,0.00003103,0.00000940,-0.000
 00623,-0.00001091,0.00001786,-0.00000780,0.00001019,0.00009147,0.00004
 728,0.00005332,0.00019930,0.00039241,-0.00029332,-0.00059126,-0.000044
 31,0.00040093,-0.05341575,0.02318851,0.06774779,-0.00011804,-0.0007188
 5,-0.00038098,-0.00039133,0.00151929,0.00054980,0.00122632,0.00103017,
 0.00055136,0.00294906,-0.00217140,0.00035056,0.00000579,-0.00009979,0.
 00084029,-0.00021265,0.00003402,0.00033392,0.00002481,-0.00002196,0.00
 008105,-0.00000013,0.00015780,-0.00005236,0.00005425,0.00001752,-0.000
 14804,0.00722010,-0.00174595,0.00802390,-0.00095856,-0.00214705,0.0010
 2641,-0.00478105,-0.00082258,0.00327502,-0.02675911,0.00956410,-0.0267
 0403,-0.11638153,0.02155987,-0.11180053,0.00031992,0.00011963,-0.00011
 001,-0.00005170,-0.00014985,-0.00003268,0.00022472,-0.00012029,0.00000
 961,-0.00092413,0.00020711,0.00063087,0.00002604,0.00003400,-0.0001303
 7,0.00000259,0.00001283,-0.00000345,-0.00000112,-0.00001308,-0.0000684
 5,0.00006094,0.00050676,-0.00039989,0.00030794,0.00007054,-0.00001344,
 0.00041805,-0.00003168,0.00022307,-0.00058224,0.00036956,-0.00150776,0
 .13832107,-0.00032213,0.00031494,0.00015444,0.00139591,-0.00029991,-0.
 00034952,0.00131332,-0.00324890,-0.00170917,-0.01341412,0.00336964,-0.
 02374304,-0.00051034,0.00099836,0.00035973,0.00031008,0.00005512,0.000
 09483,-0.00010656,-0.00000293,0.00022585,0.00120867,-0.00028039,0.0000
 0366,-0.00059013,-0.00041804,-0.00001468,0.01200209,-0.00357386,0.0201
 9587,0.00018863,-0.00297673,0.00214314,0.00048827,-0.00044947,0.000650
 68,0.00257700,-0.00052579,0.00323579,0.02247519,-0.05262781,0.03244632
 ,-0.00134679,-0.00089034,0.00025071,-0.00022531,0.00001310,0.00030176,
 0.00009494,-0.00042893,0.00003252,0.00002388,-0.00002616,-0.00034654,-
 0.00001138,-0.00002819,-0.00005070,-0.00001326,0.00001714,0.00003136,-
 0.00003872,0.00002595,0.00002563,0.00035014,0.00111741,-0.00023703,0.0
 0043747,-0.00022980,0.00028007,0.00063914,-0.00022458,0.00044306,0.000
 23471,0.00009727,0.00016062,-0.02716070,0.06022285,-0.00065594,0.00024
 660,-0.00031996,0.00157623,-0.00048875,0.00013716,0.00118338,-0.001983
 47,-0.00139975,-0.01028542,0.00220313,-0.01544074,-0.00074763,0.000215
 66,0.00034287,-0.00032484,0.00016336,-0.00024406,0.00003056,0.00006632
 ,-0.00019230,-0.00075200,0.00038144,0.00036505,0.00039703,0.00015178,-
 0.00015094,-0.00573812,0.00056703,-0.00799084,0.00081941,0.00151404,0.
 00005347,0.00287094,-0.00068474,0.00061862,0.00724381,-0.00185685,0.01
 273904,-0.12141398,0.03569789,-0.24583318,-0.00092922,-0.00059421,0.00
 016813,-0.00003719,-0.00003932,0.00023510,0.00037744,-0.00057351,0.000
 04492,0.00077040,0.00005167,0.00014031,0.00003901,0.00010396,0.0003017
 5,0.00002578,-0.00004482,0.00001709,-0.00005315,-0.00005658,0.00012727
 ,0.00041261,-0.00041432,0.00121888,-0.00011994,0.00003706,-0.00007227,
 -0.00033156,0.00012596,-0.00031504,0.00018626,-0.00020394,0.00046720,0
 .12545613,-0.03458538,0.25498221\\0.00000403,-0.00000439,-0.00000959,0
 .00000252,-0.00000284,-0.00000626,0.00000274,-0.00000169,-0.00000339,0
 .00000111,0.,0.00000004,0.00000154,0.00000181,0.00000230,0.00000021,0.
 00000350,0.00000704,0.00000173,0.00000084,0.00000533,0.00000042,0.0000
 0136,0.00000406,-0.00000171,0.00000252,0.00000378,-0.00000318,-0.00000
 058,0.,-0.00000164,-0.00000186,-0.00000416,-0.00000182,-0.00000250,-0.
 00000695,-0.00000483,-0.00000160,-0.00000441,-0.00000336,0.,-0.0000012
 7,0.00000629,-0.00000199,-0.00000339,0.00000476,0.00000087,0.00000332,
 -0.00000007,0.00000140,0.00000422,-0.00000223,0.00000346,0.00000753,0.
 00000249,0.00000351,0.00000907,0.00000273,0.00000359,0.00000765,0.0000
 0507,0.00000075,0.00000324,-0.00000624,0.00000048,-0.00000014,0.000001
 14,-0.00000163,-0.00000406,-0.00000295,-0.00000163,-0.00000519,-0.0000
 0319,-0.00000388,-0.00000948,-0.00000554,0.00000049,0.00000070\\\@


 RESEARCH IS WHAT I AM DOING WHEN I DON'T KNOW WHAT I AM DOING.
     -- WERNER VON BRAUN
 Job cpu time:       0 days  0 hours 26 minutes 45.6 seconds.
 Elapsed time:       0 days  0 hours  1 minutes 41.0 seconds.
 File lengths (MBytes):  RWF=    260 Int=      0 D2E=      0 Chk=     19 Scr=      1
 Normal termination of Gaussian 16 at Sat Jan 24 10:04:17 2026.
