
                                 *****************
                                 * O   R   C   A *
                                 *****************

                                            #,                                       
                                            ###                                      
                                            ####                                     
                                            #####                                    
                                            ######                                   
                                           ########,                                 
                                     ,,################,,,,,                         
                               ,,#################################,,                 
                          ,,##########################################,,             
                       ,#########################################, ''#####,          
                    ,#############################################,,   '####,        
                  ,##################################################,,,,####,       
                ,###########''''           ''''###############################       
              ,#####''   ,,,,##########,,,,          '''####'''          '####       
            ,##' ,,,,###########################,,,                        '##       
           ' ,,###''''                  '''############,,,                           
         ,,##''                                '''############,,,,        ,,,,,,###''
      ,#''                                            '''#######################'''  
     '                                                          ''''####''''         
             ,#######,   #######,   ,#######,      ##                                
            ,#'     '#,  ##    ##  ,#'     '#,    #''#        ######   ,####,        
            ##       ##  ##   ,#'  ##            #'  '#       #        #'  '#        
            ##       ##  #######   ##           ,######,      #####,   #    #        
            '#,     ,#'  ##    ##  '#,     ,#' ,#      #,         ##   #,  ,#        
             '#######'   ##     ##  '#######'  #'      '#     #####' # '####'        



                  #######################################################
                  #                        -***-                        #
                  #          Department of theory and spectroscopy      #
                  #    Directorship and core code : Frank Neese         #
                  #        Max Planck Institute fuer Kohlenforschung    #
                  #                Kaiser Wilhelm Platz 1               #
                  #                 D-45470 Muelheim/Ruhr               #
                  #                      Germany                        #
                  #                                                     #
                  #                  All rights reserved                #
                  #                        -***-                        #
                  #######################################################


                         Program Version 5.0.4 -  RELEASE  -


 With contributions from (in alphabetic order):
   Daniel Aravena         : Magnetic Suceptibility
   Michael Atanasov       : Ab Initio Ligand Field Theory (pilot matlab implementation)
   Alexander A. Auer      : GIAO ZORA, VPT2 properties, NMR spectrum
   Ute Becker             : Parallelization
   Giovanni Bistoni       : ED, misc. LED, open-shell LED, HFLD
   Martin Brehm           : Molecular dynamics
   Dmytro Bykov           : SCF Hessian
   Vijay G. Chilkuri      : MRCI spin determinant printing, contributions to CSF-ICE
   Dipayan Datta          : RHF DLPNO-CCSD density
   Achintya Kumar Dutta   : EOM-CC, STEOM-CC
   Dmitry Ganyushin       : Spin-Orbit,Spin-Spin,Magnetic field MRCI
   Miquel Garcia          : C-PCM and meta-GGA Hessian, CC/C-PCM, Gaussian charge scheme
   Yang Guo               : DLPNO-NEVPT2, F12-NEVPT2, CIM, IAO-localization
   Andreas Hansen         : Spin unrestricted coupled pair/coupled cluster methods
   Benjamin Helmich-Paris : MC-RPA, TRAH-SCF, COSX integrals
   Lee Huntington         : MR-EOM, pCC
   Robert Izsak           : Overlap fitted RIJCOSX, COSX-SCS-MP3, EOM
   Marcus Kettner         : VPT2
   Christian Kollmar      : KDIIS, OOCD, Brueckner-CCSD(T), CCSD density, CASPT2, CASPT2-K
   Simone Kossmann        : Meta GGA functionals, TD-DFT gradient, OOMP2, MP2 Hessian
   Martin Krupicka        : Initial AUTO-CI
   Lucas Lang             : DCDCAS
   Marvin Lechner         : AUTO-CI (C++ implementation), FIC-MRCC
   Dagmar Lenk            : GEPOL surface, SMD
   Dimitrios Liakos       : Extrapolation schemes; Compound Job, initial MDCI parallelization
   Dimitrios Manganas     : Further ROCIS development; embedding schemes
   Dimitrios Pantazis     : SARC Basis sets
   Anastasios Papadopoulos: AUTO-CI, single reference methods and gradients
   Taras Petrenko         : DFT Hessian,TD-DFT gradient, ASA, ECA, R-Raman, ABS, FL, XAS/XES, NRVS
   Peter Pinski           : DLPNO-MP2, DLPNO-MP2 Gradient
   Christoph Reimann      : Effective Core Potentials
   Marius Retegan         : Local ZFS, SOC
   Christoph Riplinger    : Optimizer, TS searches, QM/MM, DLPNO-CCSD(T), (RO)-DLPNO pert. Triples
   Tobias Risthaus        : Range-separated hybrids, TD-DFT gradient, RPA, STAB
   Michael Roemelt        : Original ROCIS implementation
   Masaaki Saitow         : Open-shell DLPNO-CCSD energy and density
   Barbara Sandhoefer     : DKH picture change effects
   Avijit Sen             : IP-ROCIS
   Kantharuban Sivalingam : CASSCF convergence, NEVPT2, FIC-MRCI
   Bernardo de Souza      : ESD, SOC TD-DFT
   Georgi Stoychev        : AutoAux, RI-MP2 NMR, DLPNO-MP2 response
   Willem Van den Heuvel  : Paramagnetic NMR
   Boris Wezisla          : Elementary symmetry handling
   Frank Wennmohs         : Technical directorship


 We gratefully acknowledge several colleagues who have allowed us to
 interface, adapt or use parts of their codes:
   Stefan Grimme, W. Hujo, H. Kruse, P. Pracht,  : VdW corrections, initial TS optimization,
                  C. Bannwarth, S. Ehlert          DFT functionals, gCP, sTDA/sTD-DF
   Ed Valeev, F. Pavosevic, A. Kumar             : LibInt (2-el integral package), F12 methods
   Garnet Chan, S. Sharma, J. Yang, R. Olivares  : DMRG
   Ulf Ekstrom                                   : XCFun DFT Library
   Mihaly Kallay                                 : mrcc  (arbitrary order and MRCC methods)
   Jiri Pittner, Ondrej Demel                    : Mk-CCSD
   Frank Weinhold                                : gennbo (NPA and NBO analysis)
   Christopher J. Cramer and Donald G. Truhlar   : smd solvation model
   Lars Goerigk                                  : TD-DFT with DH, B97 family of functionals
   V. Asgeirsson, H. Jonsson                     : NEB implementation
   FAccTs GmbH                                   : IRC, NEB, NEB-TS, DLPNO-Multilevel, CI-OPT
                                                   MM, QMMM, 2- and 3-layer-ONIOM, Crystal-QMMM,
                                                   LR-CPCM, SF, NACMEs, symmetry and pop. for TD-DFT,
                                                   nearIR, NL-DFT gradient (VV10), updates on ESD,
                                                   ML-optimized integration grids
   S Lehtola, MJT Oliveira, MAL Marques          : LibXC Library
   Liviu Ungur et al                             : ANISO software


 Your calculation uses the libint2 library for the computation of 2-el integrals
 For citations please refer to: http://libint.valeyev.net

 Your ORCA version has been built with support for libXC version: 5.1.0
 For citations please refer to: https://tddft.org/programs/libxc/

 This ORCA versions uses:
   CBLAS   interface :  Fast vector & matrix operations
   LAPACKE interface :  Fast linear algebra routines
   SCALAPACK package :  Parallel linear algebra routines
   Shared memory     :  Shared parallel matrices
   BLAS/LAPACK       :  OpenBLAS 0.3.15  USE64BITINT DYNAMIC_ARCH NO_AFFINITY Zen SINGLE_THREADED
        Core in use  :  Zen
   Copyright (c) 2011-2014, The OpenBLAS Project


Your calculation utilizes the DFT-NL dispersion correction.
Cite in your paper:
Vydrov, O. A.; Van Voorhis, T. J. Chem. Phys. 2010, 133, 244103
Hujo, W.; Grimme, S. J. Chem. Theory Comput. 2011, 7, 3866 
   

Your calculation utilizes the SMD solvation module
Please cite in your paper:
A.V. Marenich, C.J. Cramer, D.G. Truhlar J. Phys. Chem. B, 113, (2009), 6378 

================================================================================

----- Orbital basis set information -----
Your calculation utilizes the basis: def2-TZVPP
   F. Weigend and R. Ahlrichs, Phys. Chem. Chem. Phys. 7, 3297 (2005).

----- AuxJ basis set information -----
Your calculation utilizes the auxiliary basis: def2/J
   F. Weigend, Phys. Chem. Chem. Phys. 8, 1057 (2006).

================================================================================
                                        WARNINGS
                       Please study these warnings very carefully!
================================================================================

Using LibXC functional ID 531 : wB97M-V exchange-correlation functional
[ 1]  N. Mardirossian and M. Head-Gordon, J. Chem. Phys. 144, 214110 (2016)
Using LibXC functional ID 531 : wB97M-V exchange-correlation functional
[ 1]  N. Mardirossian and M. Head-Gordon, J. Chem. Phys. 144, 214110 (2016)

WARNING: B97M-V or wB97M-V functional requested.
  ===> : libXC variant has now been activated.
         Any manually given DFX/HFX/RangeSep scaling parameters are IGNORED!

Your calculation utilizes LibXC
 by S Lehtola, C Steigemann, MJT Oliveira & MAL Marques
Please cite in your paper:
 S Lehtola, C Steigemann, MJT Oliveira & MAL Marques, SoftwareX, 7, (2018), 1.
   


INFO   : the flag for use of the SHARK integral package has been found!

================================================================================
                                       INPUT FILE
================================================================================
NAME = conf_003_SP.inp
|  1> ! WB97M-V def2-TZVPP def2/J RIJCOSX tightSCF noautostart miniprint nopop
|  2> %maxcore 1638
|  3> %pal nprocs 16 end
|  4> 
|  5> %cpcm
|  6>    smd true
|  7>    SMDsolvent "acetone"
|  8> end
|  9> 
| 10>  * xyz 0 1
| 11> O    -3.2056430000    0.2706930000   -1.2881770000
| 12> C    -2.2374890000    0.2880690000   -0.5467930000
| 13> C    -1.2365560000    1.3688030000   -0.5226760000
| 14> C    -0.1640950000    1.2810810000    0.2953990000
| 15> C     1.0105870000    2.2055650000    0.2506000000
| 16> C     2.3329470000    1.4218400000    0.1240780000
| 17> C     2.2648160000    0.2625260000   -0.8854830000
| 18> C     1.7745630000   -1.0614270000   -0.3188130000
| 19> O     2.3622770000   -2.0941560000   -0.5757240000
| 20> C     0.5254850000   -1.1493910000    0.5556750000
| 21> C    -0.7087710000   -1.6931530000   -0.2239220000
| 22> C    -1.8874640000   -0.8759550000    0.3814960000
| 23> O    -1.3771260000   -0.3413460000    1.5995870000
| 24> C    -0.0768860000    0.1075840000    1.2469080000
| 25> H    -1.3590560000    2.1915750000   -1.2323050000
| 26> H     0.8973290000    2.9010710000   -0.5944690000
| 27> H     1.0381550000    2.8112400000    1.1736840000
| 28> H     2.6470510000    1.0374950000    1.1084540000
| 29> H     3.1224940000    2.1212520000   -0.1873230000
| 30> H     3.2519820000    0.0523160000   -1.3192790000
| 31> H     1.5994350000    0.5354160000   -1.7247250000
| 32> H     0.7735500000   -1.8664350000    1.3510390000
| 33> H    -0.6247510000   -1.5404030000   -1.3098670000
| 34> H    -0.8372500000   -2.7682840000   -0.0494690000
| 35> H    -2.7824920000   -1.4742170000    0.5925040000
| 36> H     0.4546760000    0.3841950000    2.1674490000
| 37>  *
| 38> 
| 39>                          ****END OF INPUT****
================================================================================

                       ****************************
                       * Single Point Calculation *
                       ****************************

---------------------------------
CARTESIAN COORDINATES (ANGSTROEM)
---------------------------------
  O     -3.205643    0.270693   -1.288177
  C     -2.237489    0.288069   -0.546793
  C     -1.236556    1.368803   -0.522676
  C     -0.164095    1.281081    0.295399
  C      1.010587    2.205565    0.250600
  C      2.332947    1.421840    0.124078
  C      2.264816    0.262526   -0.885483
  C      1.774563   -1.061427   -0.318813
  O      2.362277   -2.094156   -0.575724
  C      0.525485   -1.149391    0.555675
  C     -0.708771   -1.693153   -0.223922
  C     -1.887464   -0.875955    0.381496
  O     -1.377126   -0.341346    1.599587
  C     -0.076886    0.107584    1.246908
  H     -1.359056    2.191575   -1.232305
  H      0.897329    2.901071   -0.594469
  H      1.038155    2.811240    1.173684
  H      2.647051    1.037495    1.108454
  H      3.122494    2.121252   -0.187323
  H      3.251982    0.052316   -1.319279
  H      1.599435    0.535416   -1.724725
  H      0.773550   -1.866435    1.351039
  H     -0.624751   -1.540403   -1.309867
  H     -0.837250   -2.768284   -0.049469
  H     -2.782492   -1.474217    0.592504
  H      0.454676    0.384195    2.167449

----------------------------
CARTESIAN COORDINATES (A.U.)
----------------------------
  NO LB      ZA    FRAG     MASS         X           Y           Z
   0 O     8.0000    0    15.999   -6.057787    0.511536   -2.434302
   1 C     6.0000    0    12.011   -4.228241    0.544372   -1.033289
   2 C     6.0000    0    12.011   -2.336752    2.586663   -0.987714
   3 C     6.0000    0    12.011   -0.310095    2.420892    0.558223
   4 C     6.0000    0    12.011    1.909733    4.167914    0.473565
   5 C     6.0000    0    12.011    4.408631    2.686888    0.234473
   6 C     6.0000    0    12.011    4.279882    0.496102   -1.673320
   7 C     6.0000    0    12.011    3.353438   -2.005806   -0.602469
   8 O     8.0000    0    15.999    4.464057   -3.957381   -1.087961
   9 C     6.0000    0    12.011    0.993023   -2.172034    1.050074
  10 C     6.0000    0    12.011   -1.339383   -3.199595   -0.423151
  11 C     6.0000    0    12.011   -3.566790   -1.655315    0.720923
  12 O     8.0000    0    15.999   -2.602391   -0.645050    3.022781
  13 C     6.0000    0    12.011   -0.145293    0.203304    2.356315
  14 H     1.0000    0     1.008   -2.568244    4.141477   -2.328719
  15 H     1.0000    0     1.008    1.695706    5.482230   -1.123384
  16 H     1.0000    0     1.008    1.961829    5.312474    2.217941
  17 H     1.0000    0     1.008    5.002201    1.960581    2.094674
  18 H     1.0000    0     1.008    5.900659    4.008585   -0.353989
  19 H     1.0000    0     1.008    6.145355    0.098863   -2.493076
  20 H     1.0000    0     1.008    3.022494    1.011790   -3.259258
  21 H     1.0000    0     1.008    1.461798   -3.527051    2.553094
  22 H     1.0000    0     1.008   -1.180608   -2.910940   -2.475290
  23 H     1.0000    0     1.008   -1.582173   -5.231299   -0.093483
  24 H     1.0000    0     1.008   -5.258148   -2.785866    1.119670
  25 H     1.0000    0     1.008    0.859213    0.726023    4.095885



           ************************************************************
           *        Program running with 16 parallel MPI-processes    *
           *              working on a common directory               *
           ************************************************************
------------------------------------------------------------------------------
                   ___                                                        
                  /   \      - P O W E R E D   B Y -                         
                 /     \                                                     
                 |  |  |   _    _      __       _____    __    __             
                 |  |  |  | |  | |    /  \     |  _  \  |  |  /  |          
                  \  \/   | |  | |   /    \    | | | |  |  | /  /          
                 / \  \   | |__| |  /  /\  \   | |_| |  |  |/  /          
                |  |  |   |  __  | /  /__\  \  |    /   |      \           
                |  |  |   | |  | | |   __   |  |    \   |  |\   \          
                \     /   | |  | | |  |  |  |  | |\  \  |  | \   \       
                 \___/    |_|  |_| |__|  |__|  |_| \__\ |__|  \__/        
                                                                              
                      - O R C A' S   B I G   F R I E N D -                    
                                      &                                       
                       - I N T E G R A L  F E E D E R -                       
                                                                              
 v1 FN, 2020, v2 2021                                                         
------------------------------------------------------------------------------


Reading SHARK input file conf_003_SP.SHARKINP.tmp ... ok
----------------------
SHARK INTEGRAL PACKAGE
----------------------

Number of atoms                             ...     26
Number of basis functions                   ...    602
Number of shells                            ...    226
Maximum angular momentum                    ...      3
Integral batch strategy                     ... SHARK/LIBINT Hybrid
RI-J (if used) integral strategy            ... SPLIT-RIJ (Revised 2003 algorithm where possible)
Printlevel                                  ...      1
Contraction scheme used                     ... SEGMENTED contraction
Coulomb Range Separation                    ... NOT USED
Exchange Range Separation                   ... Long Range
   Mu parameter                             ...  0.300000
   Scaling (regular/separated)              ...  0.150000  0.850000
Finite Nucleus Model                        ... NOT USED
Auxiliary Coulomb fitting basis             ... AVAILABLE
   # of basis functions in Aux-J            ...    818
   # of shells in Aux-J                     ...    270
   Maximum angular momentum in Aux-J        ...      4
Auxiliary J/K fitting basis                 ... NOT available
Auxiliary Correlation fitting basis         ... NOT available
Auxiliary 'external' fitting basis          ... NOT available
Integral threshold                          ...     2.500000e-11
Primitive cut-off                           ...     2.500000e-12
Primitive pair pre-selection threshold      ...     2.500000e-12

Calculating pre-screening integrals         ... done (  0.0 sec) Dimension = 226
Organizing shell pair data                  ... done (  0.5 sec)
Shell pair information
Total number of shell pairs                 ...     25651
Shell pairs after pre-screening             ...     22093
Total number of primitive shell pairs       ...     71220
Primitive shell pairs kept                  ...     44870
          la=0 lb=0:   4747 shell pairs
          la=1 lb=0:   6144 shell pairs
          la=1 lb=1:   2019 shell pairs
          la=2 lb=0:   3503 shell pairs
          la=2 lb=1:   2315 shell pairs
          la=2 lb=2:    679 shell pairs
          la=3 lb=0:   1272 shell pairs
          la=3 lb=1:    837 shell pairs
          la=3 lb=2:    482 shell pairs
          la=3 lb=3:     95 shell pairs

Calculating one electron integrals          ... done (  0.0 sec)
Calculating RI/J V-Matrix + Cholesky decomp.... done (  0.1 sec)
Calculating Nuclear repulsion               ... done (  0.0 sec) ENN=    934.592212181551 Eh

SHARK setup successfully completed in   1.3 seconds

Maximum memory used throughout the entire GTOINT-calculation: 34.9 MB


           ************************************************************
           *        Program running with 16 parallel MPI-processes    *
           *              working on a common directory               *
           ************************************************************

Diagonalization of the overlap matrix:
Smallest eigenvalue                        ... 1.436e-05
Time for diagonalization                   ...    0.029 sec
Threshold for overlap eigenvalues          ... 1.000e-08
Number of eigenvalues below threshold      ... 0
Time for construction of square roots      ...    0.057 sec
Total time needed                          ...    0.088 sec

Time for model grid setup =    0.171 sec

Loading Hartree-Fock densities                     ... done
Calculating cut-offs                               ... done
Initializing the effective Hamiltonian             ... done
Setting up the integral package (SHARK)            ... done
Starting the Coulomb interaction                   ... done (   0.1 sec)
Reading the grid                                   ... done
Mapping shells                                     ... done
Starting the XC term evaluation                    ... done (   0.1 sec)
  promolecular density results
     # of electrons  =    101.985726751
     EX              =    -84.259687734
     EC              =     -3.451301706
     EX+EC           =    -87.710989439
Transforming the Hamiltonian                       ... done (   0.0 sec)
Diagonalizing the Hamiltonian                      ... done (   0.0 sec)
Back transforming the eigenvectors                 ... done (   0.0 sec)
Now organizing SCF variables                       ... done
-------------------
DFT GRID GENERATION
-------------------

General Integration Accuracy     IntAcc      ... 4.388
Radial Grid Type                 RadialGrid  ... OptM3 with GC (2021)
Angular Grid (max. ang.)         AngularGrid ... 4 (Lebedev-302)
Angular grid pruning method      GridPruning ... 4 (adaptive)
Weight generation scheme         WeightScheme... Becke
Basis function cutoff            BFCut       ... 1.0000e-11
Integration weight cutoff        WCut        ... 1.0000e-14
Angular grids for H and He will be reduced by one unit
Partially contracted basis set               ... off
Rotationally invariant grid construction     ... off

Total number of grid points                  ...   121589
Total number of batches                      ...     1914
Average number of points per batch           ...       63
Average number of grid points per atom       ...     4676
Time for grid setup =    0.590 sec

--------------------
COSX GRID GENERATION
--------------------

GRIDX 1
-------
General Integration Accuracy     IntAcc      ... 3.816
Radial Grid Type                 RadialGrid  ... OptM3 with GC (2021)
Angular Grid (max. ang.)         AngularGrid ... 1 (Lebedev-50)
Angular grid pruning method      GridPruning ... 4 (adaptive)
Weight generation scheme         WeightScheme... Becke
Basis function cutoff            BFCut       ... 1.0000e-11
Integration weight cutoff        WCut        ... 1.0000e-14
Angular grids for H and He will be reduced by one unit
Partially contracted basis set               ... on
Rotationally invariant grid construction     ... off

Total number of grid points                  ...    15427
Total number of batches                      ...      256
Average number of points per batch           ...       60
Average number of grid points per atom       ...      593
UseSFitting                                  ... on

GRIDX 2
-------
General Integration Accuracy     IntAcc      ... 4.020
Radial Grid Type                 RadialGrid  ... OptM3 with GC (2021)
Angular Grid (max. ang.)         AngularGrid ... 2 (Lebedev-110)
Angular grid pruning method      GridPruning ... 4 (adaptive)
Weight generation scheme         WeightScheme... Becke
Basis function cutoff            BFCut       ... 1.0000e-11
Integration weight cutoff        WCut        ... 1.0000e-14
Angular grids for H and He will be reduced by one unit
Partially contracted basis set               ... on
Rotationally invariant grid construction     ... off

Total number of grid points                  ...    33468
Total number of batches                      ...      535
Average number of points per batch           ...       62
Average number of grid points per atom       ...     1287
UseSFitting                                  ... on

GRIDX 3
-------
General Integration Accuracy     IntAcc      ... 4.338
Radial Grid Type                 RadialGrid  ... OptM3 with GC (2021)
Angular Grid (max. ang.)         AngularGrid ... 3 (Lebedev-194)
Angular grid pruning method      GridPruning ... 4 (adaptive)
Weight generation scheme         WeightScheme... Becke
Basis function cutoff            BFCut       ... 1.0000e-11
Integration weight cutoff        WCut        ... 1.0000e-14
Angular grids for H and He will be reduced by one unit
Partially contracted basis set               ... on
Rotationally invariant grid construction     ... off

Total number of grid points                  ...    73213
Total number of batches                      ...     1155
Average number of points per batch           ...       63
Average number of grid points per atom       ...     2816
UseSFitting                                  ... on

Time for X-Grid setup             =    2.155 sec


--------------------
CPCM SOLVATION MODEL
--------------------
CPCM parameters:
  Epsilon                                         ...      20.4930
  Refrac                                          ...       1.3588
  Rsolv                                           ...       1.3000
  Surface type                                    ... GAUSSIAN VDW
  Epsilon function type                           ...         CPCM
Solvent:                                     ... ACETONE
SMD-CDS solvent descriptors:
  Soln                                       ...    1.3588
  Soln25                                     ...    1.3559
  Sola                                       ...    0.0400
  Solb                                       ...    0.4900
  Solg                                       ...   33.7700
  Solc                                       ...    0.0000
  Solh                                       ...    0.0000
Radii:
 Radius for O  used is    4.1990 Bohr (=   2.2220 Ang.)
 Radius for C  used is    3.4960 Bohr (=   1.8500 Ang.)
 Radius for H  used is    2.2677 Bohr (=   1.2000 Ang.)
Calculating surface                               ...        done! (  0.0s)
GEPOL surface points                              ...         1360
GEPOL Volume                                      ...    1561.3069
GEPOL Surface-area                                ...     825.6955
Calculating surface distance matrix               ...        done! (  0.0s)
Performing Cholesky decomposition & store         ...        done! (  0.1s)
Overall time for CPCM initialization              ...                 0.2s
--------------
SCF ITERATIONS
--------------
ITER       Energy         Delta-E        Max-DP      RMS-DP      [F,P]     Damp
               ***  Starting incremental Fock matrix formation  ***
  0   -652.1286544589   0.000000000000 0.23250647  0.00157580  0.2618403 0.7000
  1   -652.2665675793  -0.137913120449 0.25205653  0.00156771  0.1296612 0.7000
                               ***Turning on DIIS***
  2   -652.3330951385  -0.066527559198 0.45681851  0.00304840  0.0513891 0.0000
  3   -652.4476428915  -0.114547752975 0.18763656  0.00101051  0.0617683 0.0000
  4   -652.4624488017  -0.014805910203 0.02202783  0.00015052  0.0122718 0.0000
  5   -652.4631536716  -0.000704869892 0.01445832  0.00008683  0.0049867 0.0000
                      *** Initiating the SOSCF procedure ***
                           *** Shutting down DIIS ***
                      *** Re-Reading the Fockian *** 
                      *** Removing any level shift *** 
ITER      Energy       Delta-E        Grad      Rot      Max-DP    RMS-DP
  6   -652.46327640  -0.0001227290  0.000820  0.000820  0.009773  0.000058
               *** Restarting incremental Fock matrix formation ***
  7   -652.46328363  -0.0000072318  0.000207  0.000551  0.007385  0.000042
  8   -652.46328714  -0.0000035091  0.000274  0.000826  0.002683  0.000016
  9   -652.46328893  -0.0000017918  0.000032  0.000123  0.000525  0.000007
 10   -652.46328903  -0.0000000922  0.000032  0.000035  0.000163  0.000002
 11   -652.46328909  -0.0000000631  0.000011  0.000032  0.000426  0.000002
                  ***Gradient check signals convergence***
              ***Rediagonalizing the Fockian in SOSCF/NRSCF***

               *****************************************************
               *                     SUCCESS                       *
               *           SCF CONVERGED AFTER  12 CYCLES          *
               *****************************************************

Old exchange energy                            =    -26.522397496 Eh
New exchange energy                            =    -26.522401471 Eh
Exchange energy change after final integration =     -0.000003975 Eh
Total energy after final integration           =   -652.463293086 Eh
Final COS-X integration done in                =     6.988 sec

------------------
NL GRID GENERATION
------------------

General Integration Accuracy     IntAcc      ... 4.004
Radial Grid Type                 RadialGrid  ... OptM3 with GC (2021)
Angular Grid (max. ang.)         AngularGrid ... 2 (Lebedev-110)
Angular grid pruning method      GridPruning ... 4 (adaptive)
Weight generation scheme         WeightScheme... Becke
Basis function cutoff            BFCut       ... 1.0000e-10
Integration weight cutoff        WCut        ... 1.0000e-14
Angular grids for H and He will be reduced by one unit
Partially contracted basis set               ... off
Rotationally invariant grid construction     ... off

Total number of grid points                  ...    38464
Total number of batches                      ...      613
Average number of points per batch           ...       62
Average number of grid points per atom       ...     1479
Final grid set up in    2.3 sec

-------------------------------------------------------------------------------
                    post-SCF DFT-NL dispersion correction                      
-------------------------------------------------------------------------------

SCF Energy:   -652.463293086 
NL    Energy:  0.377199908 
SC+NL Energy: -652.086093179 
NL done in:    0.8 sec
-------------------------------------------------------------------------------

SMD CDS free energy correction energy :                -5.18122     Kcal/mol
Total Energy after SMD CDS correction =              -652.094349974 Eh
Total Energy       :         -652.09434997 Eh          -17744.38937 eV
  Last Energy change         ...   -2.2443e-08  Tolerance :   1.0000e-08
  Last MAX-Density change    ...    2.4425e-15  Tolerance :   1.0000e-07
             **** THE GBW FILE WAS UPDATED (conf_003_SP.gbw) ****
             **** DENSITY conf_003_SP.scfp WAS UPDATED ****
             **** ENERGY FILE WAS UPDATED (conf_003_SP.en.tmp) ****
             **** THE GBW FILE WAS UPDATED (conf_003_SP.gbw) ****
             **** DENSITY conf_003_SP.scfp WAS UPDATED ****
----------------
ORBITAL ENERGIES
----------------

  NO   OCC          E(Eh)            E(eV) 
   0   2.0000     -19.348846      -526.5089 
   1   2.0000     -19.324939      -525.8583 
   2   2.0000     -19.323525      -525.8198 
   3   2.0000     -10.440827      -284.1094 
   4   2.0000     -10.434228      -283.9298 
   5   2.0000     -10.410206      -283.2761 
   6   2.0000     -10.403040      -283.0811 
   7   2.0000     -10.380161      -282.4585 
   8   2.0000     -10.364765      -282.0396 
   9   2.0000     -10.356660      -281.8190 
  10   2.0000     -10.351038      -281.6661 
  11   2.0000     -10.350807      -281.6598 
  12   2.0000     -10.348386      -281.5939 
  13   2.0000     -10.347750      -281.5766 
  14   2.0000      -1.195570       -32.5331 
  15   2.0000      -1.176236       -32.0070 
  16   2.0000      -1.168187       -31.7880 
  17   2.0000      -0.970027       -26.3958 
  18   2.0000      -0.916323       -24.9344 
  19   2.0000      -0.908968       -24.7343 
  20   2.0000      -0.883259       -24.0347 
  21   2.0000      -0.836656       -22.7666 
  22   2.0000      -0.759155       -20.6577 
  23   2.0000      -0.749583       -20.3972 
  24   2.0000      -0.741548       -20.1786 
  25   2.0000      -0.681170       -18.5356 
  26   2.0000      -0.659695       -17.9512 
  27   2.0000      -0.640447       -17.4274 
  28   2.0000      -0.615794       -16.7566 
  29   2.0000      -0.604659       -16.4536 
  30   2.0000      -0.584819       -15.9137 
  31   2.0000      -0.568998       -15.4832 
  32   2.0000      -0.556993       -15.1565 
  33   2.0000      -0.546596       -14.8736 
  34   2.0000      -0.535511       -14.5720 
  35   2.0000      -0.526462       -14.3258 
  36   2.0000      -0.523620       -14.2484 
  37   2.0000      -0.519543       -14.1375 
  38   2.0000      -0.490655       -13.3514 
  39   2.0000      -0.486339       -13.2340 
  40   2.0000      -0.480535       -13.0760 
  41   2.0000      -0.459863       -12.5135 
  42   2.0000      -0.455285       -12.3889 
  43   2.0000      -0.446752       -12.1567 
  44   2.0000      -0.440175       -11.9778 
  45   2.0000      -0.434678       -11.8282 
  46   2.0000      -0.421561       -11.4712 
  47   2.0000      -0.398697       -10.8491 
  48   2.0000      -0.360136        -9.7998 
  49   2.0000      -0.351892        -9.5755 
  50   2.0000      -0.338652        -9.2152 
  51   0.0000       0.023677         0.6443 
  52   0.0000       0.061900         1.6844 
  53   0.0000       0.099675         2.7123 
  54   0.0000       0.110908         3.0180 
  55   0.0000       0.121658         3.3105 
  56   0.0000       0.130667         3.5556 
  57   0.0000       0.135731         3.6934 
  58   0.0000       0.147896         4.0245 
  59   0.0000       0.152832         4.1588 
  60   0.0000       0.163294         4.4435 
  61   0.0000       0.170915         4.6508 
  62   0.0000       0.184615         5.0236 
  63   0.0000       0.186262         5.0685 
  64   0.0000       0.189808         5.1650 
  65   0.0000       0.197221         5.3667 
  66   0.0000       0.197857         5.3840 
  67   0.0000       0.216903         5.9022 
  68   0.0000       0.229750         6.2518 
  69   0.0000       0.231787         6.3072 
  70   0.0000       0.238847         6.4994 
  71   0.0000       0.252954         6.8832 
  72   0.0000       0.256836         6.9889 
  73   0.0000       0.265040         7.2121 
  74   0.0000       0.277388         7.5481 
  75   0.0000       0.285260         7.7623 
  76   0.0000       0.293018         7.9734 
  77   0.0000       0.301698         8.2096 
  78   0.0000       0.310664         8.4536 
  79   0.0000       0.315831         8.5942 
  80   0.0000       0.320859         8.7310 
  81   0.0000       0.324919         8.8415 
  82   0.0000       0.339451         9.2369 
  83   0.0000       0.349537         9.5114 
  84   0.0000       0.352599         9.5947 
  85   0.0000       0.369441        10.0530 
  86   0.0000       0.377594        10.2749 
  87   0.0000       0.384417        10.4605 
  88   0.0000       0.387296        10.5389 
  89   0.0000       0.394974        10.7478 
  90   0.0000       0.408903        11.1268 
  91   0.0000       0.412198        11.2165 
  92   0.0000       0.417199        11.3526 
  93   0.0000       0.427924        11.6444 
  94   0.0000       0.430794        11.7225 
  95   0.0000       0.436000        11.8642 
  96   0.0000       0.443123        12.0580 
  97   0.0000       0.447377        12.1737 
  98   0.0000       0.451249        12.2791 
  99   0.0000       0.458291        12.4707 
 100   0.0000       0.466452        12.6928 
 101   0.0000       0.468318        12.7436 
 102   0.0000       0.474127        12.9017 
 103   0.0000       0.480980        13.0881 
 104   0.0000       0.486080        13.2269 
 105   0.0000       0.492679        13.4065 
 106   0.0000       0.494447        13.4546 
 107   0.0000       0.502325        13.6690 
 108   0.0000       0.505492        13.7551 
 109   0.0000       0.508530        13.8378 
 110   0.0000       0.515277        14.0214 
 111   0.0000       0.519077        14.1248 
 112   0.0000       0.529894        14.4191 
 113   0.0000       0.534379        14.5412 
 114   0.0000       0.537448        14.6247 
 115   0.0000       0.541592        14.7375 
 116   0.0000       0.547175        14.8894 
 117   0.0000       0.549118        14.9422 
 118   0.0000       0.558060        15.1856 
 119   0.0000       0.572356        15.5746 
 120   0.0000       0.577374        15.7111 
 121   0.0000       0.589641        16.0449 
 122   0.0000       0.598434        16.2842 
 123   0.0000       0.602308        16.3896 
 124   0.0000       0.613644        16.6981 
 125   0.0000       0.622296        16.9335 
 126   0.0000       0.628995        17.1158 
 127   0.0000       0.639057        17.3896 
 128   0.0000       0.657855        17.9011 
 129   0.0000       0.665600        18.1119 
 130   0.0000       0.675787        18.3891 
 131   0.0000       0.687607        18.7107 
 132   0.0000       0.697158        18.9706 
 133   0.0000       0.702706        19.1216 
 134   0.0000       0.717834        19.5333 
 135   0.0000       0.739790        20.1307 
 136   0.0000       0.742504        20.2046 
 137   0.0000       0.754713        20.5368 
 138   0.0000       0.763356        20.7720 
 139   0.0000       0.776479        21.1291 
 140   0.0000       0.782093        21.2818 
 141   0.0000       0.802340        21.8328 
 142   0.0000       0.824142        22.4260 
 143   0.0000       0.825622        22.4663 
 144   0.0000       0.827743        22.5240 
 145   0.0000       0.838290        22.8110 
 146   0.0000       0.847795        23.0697 
 147   0.0000       0.857017        23.3206 
 148   0.0000       0.872430        23.7400 
 149   0.0000       0.888908        24.1884 
 150   0.0000       0.895755        24.3747 
 151   0.0000       0.919550        25.0222 
 152   0.0000       0.921842        25.0846 
 153   0.0000       0.929855        25.3026 
 154   0.0000       0.935726        25.4624 
 155   0.0000       0.940936        25.6042 
 156   0.0000       0.949177        25.8284 
 157   0.0000       0.956015        26.0145 
 158   0.0000       0.963599        26.2209 
 159   0.0000       0.977352        26.5951 
 160   0.0000       0.987015        26.8580 
 161   0.0000       0.995872        27.0991 
 162   0.0000       1.006290        27.3825 
 163   0.0000       1.020131        27.7592 
 164   0.0000       1.028340        27.9826 
 165   0.0000       1.033922        28.1344 
 166   0.0000       1.049589        28.5608 
 167   0.0000       1.061032        28.8721 
 168   0.0000       1.065894        29.0045 
 169   0.0000       1.076123        29.2828 
 170   0.0000       1.085465        29.5370 
 171   0.0000       1.097669        29.8691 
 172   0.0000       1.105334        30.0777 
 173   0.0000       1.115301        30.3489 
 174   0.0000       1.120830        30.4993 
 175   0.0000       1.126925        30.6652 
 176   0.0000       1.135689        30.9037 
 177   0.0000       1.150727        31.3129 
 178   0.0000       1.157335        31.4927 
 179   0.0000       1.166978        31.7551 
 180   0.0000       1.171475        31.8775 
 181   0.0000       1.189442        32.3664 
 182   0.0000       1.195049        32.5189 
 183   0.0000       1.200440        32.6656 
 184   0.0000       1.203787        32.7567 
 185   0.0000       1.220503        33.2116 
 186   0.0000       1.227242        33.3949 
 187   0.0000       1.237513        33.6744 
 188   0.0000       1.253641        34.1133 
 189   0.0000       1.259976        34.2857 
 190   0.0000       1.268112        34.5071 
 191   0.0000       1.272787        34.6343 
 192   0.0000       1.285635        34.9839 
 193   0.0000       1.287836        35.0438 
 194   0.0000       1.300366        35.3847 
 195   0.0000       1.311943        35.6998 
 196   0.0000       1.324340        36.0371 
 197   0.0000       1.337199        36.3870 
 198   0.0000       1.342796        36.5393 
 199   0.0000       1.352078        36.7919 
 200   0.0000       1.369110        37.2554 
 201   0.0000       1.370730        37.2995 
 202   0.0000       1.385782        37.7090 
 203   0.0000       1.392351        37.8878 
 204   0.0000       1.404485        38.2180 
 205   0.0000       1.410285        38.3758 
 206   0.0000       1.422488        38.7079 
 207   0.0000       1.438020        39.1305 
 208   0.0000       1.438776        39.1511 
 209   0.0000       1.451758        39.5043 
 210   0.0000       1.453912        39.5630 
 211   0.0000       1.469095        39.9761 
 212   0.0000       1.481768        40.3210 
 213   0.0000       1.489960        40.5439 
 214   0.0000       1.492411        40.6106 
 215   0.0000       1.502115        40.8746 
 216   0.0000       1.510578        41.1049 
 217   0.0000       1.522450        41.4280 
 218   0.0000       1.533552        41.7301 
 219   0.0000       1.544514        42.0284 
 220   0.0000       1.548298        42.1313 
 221   0.0000       1.553465        42.2719 
 222   0.0000       1.558907        42.4200 
 223   0.0000       1.565750        42.6062 
 224   0.0000       1.574237        42.8372 
 225   0.0000       1.595071        43.4041 
 226   0.0000       1.598984        43.5106 
 227   0.0000       1.605401        43.6852 
 228   0.0000       1.626868        44.2693 
 229   0.0000       1.642843        44.7040 
 230   0.0000       1.653129        44.9839 
 231   0.0000       1.673662        45.5427 
 232   0.0000       1.680805        45.7370 
 233   0.0000       1.692451        46.0539 
 234   0.0000       1.699764        46.2529 
 235   0.0000       1.712106        46.5888 
 236   0.0000       1.719135        46.7800 
 237   0.0000       1.731862        47.1264 
 238   0.0000       1.754949        47.7546 
 239   0.0000       1.763593        47.9898 
 240   0.0000       1.767172        48.0872 
 241   0.0000       1.789015        48.6816 
 242   0.0000       1.796921        48.8967 
 243   0.0000       1.821026        49.5526 
 244   0.0000       1.824016        49.6340 
 245   0.0000       1.840436        50.0808 
 246   0.0000       1.849576        50.3295 
 247   0.0000       1.858790        50.5802 
 248   0.0000       1.861218        50.6463 
 249   0.0000       1.887306        51.3562 
 250   0.0000       1.896878        51.6167 
 251   0.0000       1.909650        51.9642 
 252   0.0000       1.928109        52.4665 
 253   0.0000       1.955320        53.2070 
 254   0.0000       1.965595        53.4866 
 255   0.0000       1.982726        53.9527 
 256   0.0000       2.013745        54.7968 
 257   0.0000       2.037241        55.4361 
 258   0.0000       2.047375        55.7119 
 259   0.0000       2.067801        56.2677 
 260   0.0000       2.077664        56.5361 
 261   0.0000       2.098760        57.1102 
 262   0.0000       2.112422        57.4819 
 263   0.0000       2.133121        58.0452 
 264   0.0000       2.158307        58.7305 
 265   0.0000       2.170291        59.0566 
 266   0.0000       2.178840        59.2892 
 267   0.0000       2.200457        59.8775 
 268   0.0000       2.205690        60.0199 
 269   0.0000       2.215204        60.2788 
 270   0.0000       2.240502        60.9672 
 271   0.0000       2.244503        61.0760 
 272   0.0000       2.270571        61.7854 
 273   0.0000       2.289652        62.3046 
 274   0.0000       2.294857        62.4462 
 275   0.0000       2.309769        62.8520 
 276   0.0000       2.321935        63.1831 
 277   0.0000       2.347898        63.8896 
 278   0.0000       2.354243        64.0622 
 279   0.0000       2.367072        64.4113 
 280   0.0000       2.393974        65.1433 
 281   0.0000       2.403531        65.4034 
 282   0.0000       2.417018        65.7704 
 283   0.0000       2.430613        66.1403 
 284   0.0000       2.455826        66.8264 
 285   0.0000       2.470989        67.2390 
 286   0.0000       2.481873        67.5352 
 287   0.0000       2.501656        68.0735 
 288   0.0000       2.516473        68.4767 
 289   0.0000       2.539919        69.1147 
 290   0.0000       2.566977        69.8510 
 291   0.0000       2.569283        69.9137 
 292   0.0000       2.597577        70.6837 
 293   0.0000       2.608128        70.9708 
 294   0.0000       2.622106        71.3511 
 295   0.0000       2.636307        71.7376 
 296   0.0000       2.640561        71.8533 
 297   0.0000       2.655966        72.2725 
 298   0.0000       2.665761        72.5390 
 299   0.0000       2.681840        72.9766 
 300   0.0000       2.687404        73.1280 
 301   0.0000       2.694716        73.3269 
 302   0.0000       2.706756        73.6546 
 303   0.0000       2.710292        73.7508 
 304   0.0000       2.733062        74.3704 
 305   0.0000       2.743605        74.6573 
 306   0.0000       2.751625        74.8755 
 307   0.0000       2.754365        74.9501 
 308   0.0000       2.782263        75.7092 
 309   0.0000       2.795265        76.0630 
 310   0.0000       2.800587        76.2078 
 311   0.0000       2.822871        76.8142 
 312   0.0000       2.826743        76.9196 
 313   0.0000       2.851649        77.5973 
 314   0.0000       2.853018        77.6346 
 315   0.0000       2.863462        77.9188 
 316   0.0000       2.877244        78.2938 
 317   0.0000       2.892544        78.7101 
 318   0.0000       2.907040        79.1046 
 319   0.0000       2.911741        79.2325 
 320   0.0000       2.923897        79.5633 
 321   0.0000       2.931203        79.7621 
 322   0.0000       2.942629        80.0730 
 323   0.0000       2.950003        80.2737 
 324   0.0000       2.952983        80.3547 
 325   0.0000       2.957216        80.4699 
 326   0.0000       2.982036        81.1453 
 327   0.0000       2.986817        81.2754 
 328   0.0000       3.000810        81.6562 
 329   0.0000       3.023288        82.2679 
 330   0.0000       3.032853        82.5281 
 331   0.0000       3.038659        82.6861 
 332   0.0000       3.048348        82.9498 
 333   0.0000       3.061649        83.3117 
 334   0.0000       3.077486        83.7427 
 335   0.0000       3.084059        83.9215 
 336   0.0000       3.099393        84.3388 
 337   0.0000       3.116829        84.8132 
 338   0.0000       3.119806        84.8942 
 339   0.0000       3.126376        85.0730 
 340   0.0000       3.135073        85.3097 
 341   0.0000       3.144577        85.5683 
 342   0.0000       3.155863        85.8754 
 343   0.0000       3.174305        86.3772 
 344   0.0000       3.179271        86.5124 
 345   0.0000       3.183223        86.6199 
 346   0.0000       3.186838        86.7183 
 347   0.0000       3.198054        87.0235 
 348   0.0000       3.201683        87.1222 
 349   0.0000       3.205457        87.2249 
 350   0.0000       3.216058        87.5134 
 351   0.0000       3.231207        87.9256 
 352   0.0000       3.243428        88.2582 
 353   0.0000       3.245840        88.3238 
 354   0.0000       3.250839        88.4598 
 355   0.0000       3.260871        88.7328 
 356   0.0000       3.265961        88.8713 
 357   0.0000       3.274219        89.0960 
 358   0.0000       3.292005        89.5800 
 359   0.0000       3.298072        89.7451 
 360   0.0000       3.302886        89.8761 
 361   0.0000       3.313697        90.1703 
 362   0.0000       3.319685        90.3332 
 363   0.0000       3.335132        90.7535 
 364   0.0000       3.343223        90.9737 
 365   0.0000       3.352879        91.2365 
 366   0.0000       3.361868        91.4811 
 367   0.0000       3.377512        91.9068 
 368   0.0000       3.381166        92.0062 
 369   0.0000       3.385938        92.1360 
 370   0.0000       3.398632        92.4815 
 371   0.0000       3.405858        92.6781 
 372   0.0000       3.420306        93.0713 
 373   0.0000       3.427223        93.2595 
 374   0.0000       3.444803        93.7379 
 375   0.0000       3.450558        93.8945 
 376   0.0000       3.456559        94.0578 
 377   0.0000       3.467126        94.3453 
 378   0.0000       3.482330        94.7590 
 379   0.0000       3.492326        95.0310 
 380   0.0000       3.503812        95.3436 
 381   0.0000       3.520167        95.7886 
 382   0.0000       3.526684        95.9659 
 383   0.0000       3.535327        96.2011 
 384   0.0000       3.546207        96.4972 
 385   0.0000       3.550256        96.6074 
 386   0.0000       3.568981        97.1169 
 387   0.0000       3.571835        97.1946 
 388   0.0000       3.582028        97.4719 
 389   0.0000       3.594590        97.8138 
 390   0.0000       3.602930        98.0407 
 391   0.0000       3.609934        98.2313 
 392   0.0000       3.623321        98.5956 
 393   0.0000       3.635941        98.9390 
 394   0.0000       3.645463        99.1981 
 395   0.0000       3.656900        99.5093 
 396   0.0000       3.663585        99.6912 
 397   0.0000       3.685463       100.2865 
 398   0.0000       3.696965       100.5995 
 399   0.0000       3.703073       100.7657 
 400   0.0000       3.716653       101.1353 
 401   0.0000       3.723300       101.3161 
 402   0.0000       3.734317       101.6159 
 403   0.0000       3.745388       101.9172 
 404   0.0000       3.747792       101.9826 
 405   0.0000       3.767410       102.5164 
 406   0.0000       3.776277       102.7577 
 407   0.0000       3.794698       103.2590 
 408   0.0000       3.805675       103.5577 
 409   0.0000       3.809030       103.6490 
 410   0.0000       3.814839       103.8071 
 411   0.0000       3.830827       104.2421 
 412   0.0000       3.836100       104.3856 
 413   0.0000       3.847647       104.6998 
 414   0.0000       3.851411       104.8022 
 415   0.0000       3.868496       105.2671 
 416   0.0000       3.885934       105.7416 
 417   0.0000       3.896470       106.0284 
 418   0.0000       3.901558       106.1668 
 419   0.0000       3.908382       106.3525 
 420   0.0000       3.920718       106.6882 
 421   0.0000       3.931796       106.9896 
 422   0.0000       3.934843       107.0725 
 423   0.0000       3.956253       107.6551 
 424   0.0000       3.965594       107.9093 
 425   0.0000       3.972069       108.0855 
 426   0.0000       3.975916       108.1902 
 427   0.0000       3.987498       108.5053 
 428   0.0000       3.997158       108.7682 
 429   0.0000       4.009841       109.1133 
 430   0.0000       4.017307       109.3165 
 431   0.0000       4.026665       109.5711 
 432   0.0000       4.040093       109.9365 
 433   0.0000       4.052595       110.2767 
 434   0.0000       4.060806       110.5001 
 435   0.0000       4.067324       110.6775 
 436   0.0000       4.087854       111.2362 
 437   0.0000       4.089653       111.2851 
 438   0.0000       4.104721       111.6951 
 439   0.0000       4.124847       112.2428 
 440   0.0000       4.126527       112.2885 
 441   0.0000       4.131720       112.4298 
 442   0.0000       4.145441       112.8032 
 443   0.0000       4.160138       113.2031 
 444   0.0000       4.173451       113.5654 
 445   0.0000       4.183031       113.8261 
 446   0.0000       4.186851       113.9300 
 447   0.0000       4.198557       114.2486 
 448   0.0000       4.216768       114.7441 
 449   0.0000       4.220620       114.8489 
 450   0.0000       4.223265       114.9209 
 451   0.0000       4.231949       115.1572 
 452   0.0000       4.235923       115.2653 
 453   0.0000       4.265631       116.0737 
 454   0.0000       4.274222       116.3075 
 455   0.0000       4.275336       116.3378 
 456   0.0000       4.281917       116.5169 
 457   0.0000       4.292208       116.7969 
 458   0.0000       4.304422       117.1293 
 459   0.0000       4.312945       117.3612 
 460   0.0000       4.319174       117.5307 
 461   0.0000       4.322579       117.6234 
 462   0.0000       4.345672       118.2518 
 463   0.0000       4.353837       118.4739 
 464   0.0000       4.369323       118.8953 
 465   0.0000       4.397474       119.6613 
 466   0.0000       4.401211       119.7630 
 467   0.0000       4.408396       119.9586 
 468   0.0000       4.425743       120.4306 
 469   0.0000       4.434282       120.6629 
 470   0.0000       4.443717       120.9197 
 471   0.0000       4.460115       121.3659 
 472   0.0000       4.480881       121.9310 
 473   0.0000       4.485640       122.0605 
 474   0.0000       4.503904       122.5575 
 475   0.0000       4.518401       122.9519 
 476   0.0000       4.521833       123.0453 
 477   0.0000       4.539857       123.5358 
 478   0.0000       4.552653       123.8840 
 479   0.0000       4.572193       124.4157 
 480   0.0000       4.582585       124.6985 
 481   0.0000       4.584059       124.7386 
 482   0.0000       4.623076       125.8003 
 483   0.0000       4.633103       126.0731 
 484   0.0000       4.663284       126.8944 
 485   0.0000       4.685385       127.4958 
 486   0.0000       4.690487       127.6347 
 487   0.0000       4.698851       127.8622 
 488   0.0000       4.714716       128.2939 
 489   0.0000       4.747470       129.1852 
 490   0.0000       4.758184       129.4768 
 491   0.0000       4.768839       129.7667 
 492   0.0000       4.780989       130.0973 
 493   0.0000       4.801655       130.6597 
 494   0.0000       4.813588       130.9844 
 495   0.0000       4.826918       131.3471 
 496   0.0000       4.841472       131.7431 
 497   0.0000       4.844182       131.8169 
 498   0.0000       4.869380       132.5026 
 499   0.0000       4.877281       132.7176 
 500   0.0000       4.887495       132.9955 
 501   0.0000       4.907237       133.5327 
 502   0.0000       4.931082       134.1816 
 503   0.0000       4.944463       134.5457 
 504   0.0000       4.953718       134.7975 
 505   0.0000       4.964140       135.0811 
 506   0.0000       4.971560       135.2830 
 507   0.0000       4.990685       135.8034 
 508   0.0000       5.006152       136.2243 
 509   0.0000       5.017657       136.5374 
 510   0.0000       5.019850       136.5971 
 511   0.0000       5.033634       136.9722 
 512   0.0000       5.046012       137.3090 
 513   0.0000       5.060969       137.7160 
 514   0.0000       5.076073       138.1270 
 515   0.0000       5.094374       138.6250 
 516   0.0000       5.100074       138.7801 
 517   0.0000       5.123392       139.4146 
 518   0.0000       5.133128       139.6795 
 519   0.0000       5.169485       140.6688 
 520   0.0000       5.177734       140.8933 
 521   0.0000       5.194554       141.3510 
 522   0.0000       5.215418       141.9188 
 523   0.0000       5.231135       142.3464 
 524   0.0000       5.255782       143.0171 
 525   0.0000       5.257263       143.0574 
 526   0.0000       5.275760       143.5607 
 527   0.0000       5.294755       144.0776 
 528   0.0000       5.310744       144.5127 
 529   0.0000       5.320673       144.7829 
 530   0.0000       5.331115       145.0670 
 531   0.0000       5.335400       145.1836 
 532   0.0000       5.343733       145.4104 
 533   0.0000       5.365379       145.9994 
 534   0.0000       5.382122       146.4550 
 535   0.0000       5.412819       147.2903 
 536   0.0000       5.424349       147.6040 
 537   0.0000       5.432591       147.8283 
 538   0.0000       5.468060       148.7935 
 539   0.0000       5.488761       149.3568 
 540   0.0000       5.508347       149.8897 
 541   0.0000       5.521127       150.2375 
 542   0.0000       5.543359       150.8425 
 543   0.0000       5.557872       151.2374 
 544   0.0000       5.573587       151.6650 
 545   0.0000       5.576963       151.7569 
 546   0.0000       5.582756       151.9145 
 547   0.0000       5.629458       153.1853 
 548   0.0000       5.640917       153.4971 
 549   0.0000       5.665006       154.1526 
 550   0.0000       5.697735       155.0433 
 551   0.0000       5.708601       155.3389 
 552   0.0000       5.719841       155.6448 
 553   0.0000       5.734411       156.0412 
 554   0.0000       5.739496       156.1796 
 555   0.0000       5.771205       157.0425 
 556   0.0000       5.785450       157.4301 
 557   0.0000       5.807416       158.0278 
 558   0.0000       5.832373       158.7069 
 559   0.0000       5.844107       159.0262 
 560   0.0000       5.892894       160.3538 
 561   0.0000       5.910847       160.8423 
 562   0.0000       5.968392       162.4082 
 563   0.0000       6.023405       163.9052 
 564   0.0000       6.105455       166.1379 
 565   0.0000       6.277202       170.8113 
 566   0.0000       6.300874       171.4555 
 567   0.0000       6.437032       175.1606 
 568   0.0000       6.479895       176.3269 
 569   0.0000       6.517294       177.3446 
 570   0.0000       6.540664       177.9805 
 571   0.0000       6.544093       178.0738 
 572   0.0000       6.603067       179.6786 
 573   0.0000       6.644992       180.8194 
 574   0.0000       6.714169       182.7018 
 575   0.0000       6.727089       183.0534 
 576   0.0000       6.808104       185.2579 
 577   0.0000       6.939413       188.8310 
 578   0.0000       6.948482       189.0778 
 579   0.0000       6.976120       189.8299 
 580   0.0000       7.050673       191.8586 
 581   0.0000       7.130472       194.0300 
 582   0.0000       7.185935       195.5392 
 583   0.0000       7.192180       195.7092 
 584   0.0000       7.223586       196.5638 
 585   0.0000       7.225047       196.6035 
 586   0.0000       7.493845       203.9179 
 587   0.0000       7.518629       204.5923 
 588   0.0000      23.095857       628.4702 
 589   0.0000      23.260391       632.9474 
 590   0.0000      23.443618       637.9333 
 591   0.0000      23.471475       638.6913 
 592   0.0000      23.532240       640.3448 
 593   0.0000      23.574111       641.4842 
 594   0.0000      23.617817       642.6735 
 595   0.0000      23.707399       645.1111 
 596   0.0000      23.725329       645.5990 
 597   0.0000      23.750594       646.2865 
 598   0.0000      23.829803       648.4419 
 599   0.0000      44.393941      1208.0206 
 600   0.0000      44.408142      1208.4070 
 601   0.0000      44.898867      1221.7603 
Total SCF time: 0 days 0 hours 1 min 38 sec 

Maximum memory used throughout the entire SCF-calculation: 120.9 MB

-------------------------   --------------------
FINAL SINGLE POINT ENERGY      -652.094349973984
-------------------------   --------------------


                            ***************************************
                            *     ORCA property calculations      *
                            ***************************************

                                    ---------------------
                                    Active property flags
                                    ---------------------
   (+) Dipole Moment


------------------------------------------------------------------------------
                       ORCA ELECTRIC PROPERTIES CALCULATION
------------------------------------------------------------------------------

Dipole Moment Calculation                       ... on
Quadrupole Moment Calculation                   ... off
Polarizability Calculation                      ... off
GBWName                                         ... conf_003_SP.gbw
Electron density                                ... conf_003_SP.scfp
The origin for moment calculation is the CENTER OF MASS  = (-0.079593, -0.042513  0.000278)

-------------
DIPOLE MOMENT
-------------
                                X             Y             Z
Electronic contribution:     -6.50458      -3.07359       0.73313
Nuclear contribution   :      8.11855       4.33637      -0.02838
                        -----------------------------------------
Total Dipole Moment    :      1.61397       1.26278       0.70475
                        -----------------------------------------
Magnitude (a.u.)       :      2.16707
Magnitude (Debye)      :      5.50825



--------------------
Rotational spectrum 
--------------------
 
Rotational constants in cm-1:     0.037456     0.021851     0.017715 
Rotational constants in MHz :  1122.912164   655.067822   531.068364 

 Dipole components along the rotational axes: 
x,y,z [a.u.] :     1.537610     1.363290     0.688021 
x,y,z [Debye]:     3.908294     3.465208     1.748811 

 

Timings for individual modules:

Sum of individual times         ...      103.462 sec (=   1.724 min)
GTO integral calculation        ...        2.908 sec (=   0.048 min)   2.8 %
SCF iterations                  ...      100.554 sec (=   1.676 min)  97.2 %
                             ****ORCA TERMINATED NORMALLY****
TOTAL RUN TIME: 0 days 0 hours 1 minutes 47 seconds 147 msec
