 Entering Gaussian System, Link 0=g16
 Initial command:
 /root/g16/l1.exe "/root/g16/scratch/gau_root_120774/Gau-120781.inp" -scrdir="/root/g16/scratch/gau_root_120774/"
 Entering Link 1 = /root/g16/l1.exe PID=    120783.
  
 Copyright (c) 1988,1990,1992,1993,1995,1998,2003,2009,2016,
            Gaussian, Inc.  All Rights Reserved.
  
 This is part of the Gaussian(R) 16 program.  It is based on
 the Gaussian(R) 09 system (copyright 2009, Gaussian, Inc.),
 the Gaussian(R) 03 system (copyright 2003, Gaussian, Inc.),
 the Gaussian(R) 98 system (copyright 1998, Gaussian, Inc.),
 the Gaussian(R) 94 system (copyright 1995, Gaussian, Inc.),
 the Gaussian 92(TM) system (copyright 1992, Gaussian, Inc.),
 the Gaussian 90(TM) system (copyright 1990, Gaussian, Inc.),
 the Gaussian 88(TM) system (copyright 1988, Gaussian, Inc.),
 the Gaussian 86(TM) system (copyright 1986, Carnegie Mellon
 University), and the Gaussian 82(TM) system (copyright 1983,
 Carnegie Mellon University). Gaussian is a federally registered
 trademark of Gaussian, Inc.
  
 This software contains proprietary and confidential information,
 including trade secrets, belonging to Gaussian, Inc.
  
 This software is provided under written license and may be
 used, copied, transmitted, or stored only in accord with that
 written license.
  
 The following legend is applicable only to US Government
 contracts under FAR:
  
                    RESTRICTED RIGHTS LEGEND
  
 Use, reproduction and disclosure by the US Government is
 subject to restrictions as set forth in subparagraphs (a)
 and (c) of the Commercial Computer Software - Restricted
 Rights clause in FAR 52.227-19.
  
 Gaussian, Inc.
 340 Quinnipiac St., Bldg. 40, Wallingford CT 06492
  
  
 ---------------------------------------------------------------
 Warning -- This program may not be used in any manner that
 competes with the business of Gaussian, Inc. or will provide
 assistance to any competitor of Gaussian, Inc.  The licensee
 of this program is prohibited from giving any competitor of
 Gaussian, Inc. access to this program.  By using this program,
 the user acknowledges that Gaussian, Inc. is engaged in the
 business of creating and licensing software in the field of
 computational chemistry and represents and warrants to the
 licensee that it is not a competitor of Gaussian, Inc. and that
 it will not use this program in any manner prohibited above.
 ---------------------------------------------------------------
  

 Cite this work as:
 Gaussian 16, Revision A.03,
 M. J. Frisch, G. W. Trucks, H. B. Schlegel, G. E. Scuseria, 
 M. A. Robb, J. R. Cheeseman, G. Scalmani, V. Barone, 
 G. A. Petersson, H. Nakatsuji, X. Li, M. Caricato, A. V. Marenich, 
 J. Bloino, B. G. Janesko, R. Gomperts, B. Mennucci, H. P. Hratchian, 
 J. V. Ortiz, A. F. Izmaylov, J. L. Sonnenberg, D. Williams-Young, 
 F. Ding, F. Lipparini, F. Egidi, J. Goings, B. Peng, A. Petrone, 
 T. Henderson, D. Ranasinghe, V. G. Zakrzewski, J. Gao, N. Rega, 
 G. Zheng, W. Liang, M. Hada, M. Ehara, K. Toyota, R. Fukuda, 
 J. Hasegawa, M. Ishida, T. Nakajima, Y. Honda, O. Kitao, H. Nakai, 
 T. Vreven, K. Throssell, J. A. Montgomery, Jr., J. E. Peralta, 
 F. Ogliaro, M. J. Bearpark, J. J. Heyd, E. N. Brothers, K. N. Kudin, 
 V. N. Staroverov, T. A. Keith, R. Kobayashi, J. Normand, 
 K. Raghavachari, A. P. Rendell, J. C. Burant, S. S. Iyengar, 
 J. Tomasi, M. Cossi, J. M. Millam, M. Klene, C. Adamo, R. Cammi, 
 J. W. Ochterski, R. L. Martin, K. Morokuma, O. Farkas, 
 J. B. Foresman, and D. J. Fox, Gaussian, Inc., Wallingford CT, 2016.
 
 ******************************************
 Gaussian 16:  ES64L-G16RevA.03 25-Dec-2016
                31-Jan-2026 
 ******************************************
 %chk=reactant_complex.chk
 %mem=64GB
 %nprocshared=16
 Will use up to   16 processors via shared memory.
 --------------------------------------------------------------------
 #p B3LYP/def2SVP em=GD3BJ SCRF=(PCM,Solvent=Acetone) Opt=CalcFC Freq
 --------------------------------------------------------------------
 1/10=4,18=20,19=15,26=3,38=1/1,3;
 2/9=110,12=2,17=6,18=5,40=1/2;
 3/5=43,7=101,11=2,25=1,30=1,70=2201,71=2,72=19,74=-5,124=41,140=1/1,2,3;
 4//1;
 5/5=2,38=5,53=19/2;
 8/6=4,10=90,11=11/1;
 11/6=1,8=1,9=11,15=111,16=1/1,2,10;
 10/6=1,13=1/2;
 6/7=2,8=2,9=2,10=2,28=1/1;
 7/10=1,18=20,25=1/1,2,3,16;
 1/10=4,18=20,19=15,26=3/3(2);
 2/9=110/2;
 99//99;
 2/9=110/2;
 3/5=43,7=101,11=2,25=1,30=1,70=2205,71=1,72=19,74=-5,124=41/1,2,3;
 4/5=5,16=3,69=1/1;
 5/5=2,38=5,53=19/2;
 7//1,2,3,16;
 1/18=20,19=15,26=3/3(-5);
 2/9=110/2;
 6/7=2,8=2,9=2,10=2,19=2,28=1/1;
 99/9=1/99;
 Leave Link    1 at Sat Jan 31 19:41:06 2026, MaxMem=  8589934592 cpu:               0.4 elap:               0.0
 (Enter /root/g16/l101.exe)
 ----------------
 reactant_complex
 ----------------
 Symbolic Z-matrix:
 Charge =  0 Multiplicity = 1
 O                     2.80437  -0.77184  -1.5694 
 C                     2.01339  -0.73942  -0.61955 
 C                     0.71146  -1.37195  -0.6076 
 C                    -0.12689  -1.29797   0.4784 
 C                    -1.50141  -1.90258   0.46994 
 C                    -2.46788  -1.09629  -0.40916 
 C                    -2.50249   0.385    -0.0164 
 C                    -1.32719   1.13234  -0.62009 
 O                    -1.06503   1.05069  -1.80286 
 C                    -0.53364   1.96689   0.30793 
 C                     0.64965   2.45832  -0.04633 
 C                     2.30548  -0.05978   0.61636 
 O                     1.50261  -0.04236   1.6435 
 C                     0.32277  -0.60991   1.60865 
 H                     0.41447  -1.90341  -1.4994 
 H                    -1.44761  -2.92121   0.08298 
 H                    -1.88663  -1.9409    1.48997 
 H                    -3.46446  -1.5286   -0.31412 
 H                    -2.16428  -1.16363  -1.45528 
 H                    -2.5296    0.49799   1.0667 
 H                    -3.40502   0.8373   -0.43549 
 H                    -0.95163   2.14855   1.2875 
 H                     1.04741   2.25862  -1.02896 
 H                     1.24852   3.06032   0.61563 
 H                     3.24489   0.45168   0.76941 
 H                    -0.2353   -0.51829   2.52688 
 
 ITRead=  0  0  0  0  0  0  0  0  0  0  0  0  0  0  0  0  0  0  0  0
 ITRead=  0  0  0  0  0  0
 MicOpt= -1 -1 -1 -1 -1 -1 -1 -1 -1 -1 -1 -1 -1 -1 -1 -1 -1 -1 -1 -1
 MicOpt= -1 -1 -1 -1 -1 -1
 NAtoms=     26 NQM=       26 NQMF=       0 NMMI=      0 NMMIF=      0
                NMic=       0 NMicF=      0.
                    Isotopes and Nuclear Properties:
 (Nuclear quadrupole moments (NQMom) in fm**2, nuclear magnetic moments (NMagM)
  in nuclear magnetons)

  Atom         1           2           3           4           5           6           7           8           9          10
 IAtWgt=          16          12          12          12          12          12          12          12          16          12
 AtmWgt=  15.9949146  12.0000000  12.0000000  12.0000000  12.0000000  12.0000000  12.0000000  12.0000000  15.9949146  12.0000000
 NucSpn=           0           0           0           0           0           0           0           0           0           0
 AtZEff=  -0.0000000  -0.0000000  -0.0000000  -0.0000000  -0.0000000  -0.0000000  -0.0000000  -0.0000000  -0.0000000  -0.0000000
 NQMom=    0.0000000   0.0000000   0.0000000   0.0000000   0.0000000   0.0000000   0.0000000   0.0000000   0.0000000   0.0000000
 NMagM=    0.0000000   0.0000000   0.0000000   0.0000000   0.0000000   0.0000000   0.0000000   0.0000000   0.0000000   0.0000000
 AtZNuc=   8.0000000   6.0000000   6.0000000   6.0000000   6.0000000   6.0000000   6.0000000   6.0000000   8.0000000   6.0000000

  Atom        11          12          13          14          15          16          17          18          19          20
 IAtWgt=          12          12          16          12           1           1           1           1           1           1
 AtmWgt=  12.0000000  12.0000000  15.9949146  12.0000000   1.0078250   1.0078250   1.0078250   1.0078250   1.0078250   1.0078250
 NucSpn=           0           0           0           0           1           1           1           1           1           1
 AtZEff=  -0.0000000  -0.0000000  -0.0000000  -0.0000000  -0.0000000  -0.0000000  -0.0000000  -0.0000000  -0.0000000  -0.0000000
 NQMom=    0.0000000   0.0000000   0.0000000   0.0000000   0.0000000   0.0000000   0.0000000   0.0000000   0.0000000   0.0000000
 NMagM=    0.0000000   0.0000000   0.0000000   0.0000000   2.7928460   2.7928460   2.7928460   2.7928460   2.7928460   2.7928460
 AtZNuc=   6.0000000   6.0000000   8.0000000   6.0000000   1.0000000   1.0000000   1.0000000   1.0000000   1.0000000   1.0000000

  Atom        21          22          23          24          25          26
 IAtWgt=           1           1           1           1           1           1
 AtmWgt=   1.0078250   1.0078250   1.0078250   1.0078250   1.0078250   1.0078250
 NucSpn=           1           1           1           1           1           1
 AtZEff=  -0.0000000  -0.0000000  -0.0000000  -0.0000000  -0.0000000  -0.0000000
 NQMom=    0.0000000   0.0000000   0.0000000   0.0000000   0.0000000   0.0000000
 NMagM=    2.7928460   2.7928460   2.7928460   2.7928460   2.7928460   2.7928460
 AtZNuc=   1.0000000   1.0000000   1.0000000   1.0000000   1.0000000   1.0000000
 Leave Link  101 at Sat Jan 31 19:41:06 2026, MaxMem=  8589934592 cpu:               4.1 elap:               0.3
 (Enter /root/g16/l103.exe)

 GradGradGradGradGradGradGradGradGradGradGradGradGradGradGradGradGradGrad
 Berny optimization.
 Initialization pass.
                           ----------------------------
                           !    Initial Parameters    !
                           ! (Angstroms and Degrees)  !
 --------------------------                            --------------------------
 ! Name  Definition              Value          Derivative Info.                !
 --------------------------------------------------------------------------------
 ! R1    R(1,2)                  1.2365         calculate D2E/DX2 analytically  !
 ! R2    R(2,3)                  1.4475         calculate D2E/DX2 analytically  !
 ! R3    R(2,12)                 1.4404         calculate D2E/DX2 analytically  !
 ! R4    R(3,4)                  1.3739         calculate D2E/DX2 analytically  !
 ! R5    R(3,15)                 1.0798         calculate D2E/DX2 analytically  !
 ! R6    R(4,5)                  1.5016         calculate D2E/DX2 analytically  !
 ! R7    R(4,14)                 1.3975         calculate D2E/DX2 analytically  !
 ! R8    R(5,6)                  1.5352         calculate D2E/DX2 analytically  !
 ! R9    R(5,16)                 1.091          calculate D2E/DX2 analytically  !
 ! R10   R(5,17)                 1.091          calculate D2E/DX2 analytically  !
 ! R11   R(6,7)                  1.5329         calculate D2E/DX2 analytically  !
 ! R12   R(6,18)                 1.0905         calculate D2E/DX2 analytically  !
 ! R13   R(6,19)                 1.0914         calculate D2E/DX2 analytically  !
 ! R14   R(7,8)                  1.518          calculate D2E/DX2 analytically  !
 ! R15   R(7,20)                 1.0893         calculate D2E/DX2 analytically  !
 ! R16   R(7,21)                 1.0931         calculate D2E/DX2 analytically  !
 ! R17   R(8,9)                  1.2142         calculate D2E/DX2 analytically  !
 ! R18   R(8,10)                 1.479          calculate D2E/DX2 analytically  !
 ! R19   R(10,11)                1.3294         calculate D2E/DX2 analytically  !
 ! R20   R(10,22)                1.0804         calculate D2E/DX2 analytically  !
 ! R21   R(11,23)                1.0787         calculate D2E/DX2 analytically  !
 ! R22   R(11,24)                1.0767         calculate D2E/DX2 analytically  !
 ! R23   R(12,13)                1.3038         calculate D2E/DX2 analytically  !
 ! R24   R(12,25)                1.0805         calculate D2E/DX2 analytically  !
 ! R25   R(13,14)                1.3097         calculate D2E/DX2 analytically  !
 ! R26   R(14,26)                1.0784         calculate D2E/DX2 analytically  !
 ! A1    A(1,2,3)              124.7674         calculate D2E/DX2 analytically  !
 ! A2    A(1,2,12)             122.8053         calculate D2E/DX2 analytically  !
 ! A3    A(3,2,12)             112.4263         calculate D2E/DX2 analytically  !
 ! A4    A(2,3,4)              122.1282         calculate D2E/DX2 analytically  !
 ! A5    A(2,3,15)             117.1061         calculate D2E/DX2 analytically  !
 ! A6    A(4,3,15)             120.7629         calculate D2E/DX2 analytically  !
 ! A7    A(3,4,5)              122.1671         calculate D2E/DX2 analytically  !
 ! A8    A(3,4,14)             117.9979         calculate D2E/DX2 analytically  !
 ! A9    A(5,4,14)             119.8222         calculate D2E/DX2 analytically  !
 ! A10   A(4,5,6)              111.5922         calculate D2E/DX2 analytically  !
 ! A11   A(4,5,16)             109.4382         calculate D2E/DX2 analytically  !
 ! A12   A(4,5,17)             109.3938         calculate D2E/DX2 analytically  !
 ! A13   A(6,5,16)             108.5607         calculate D2E/DX2 analytically  !
 ! A14   A(6,5,17)             109.3614         calculate D2E/DX2 analytically  !
 ! A15   A(16,5,17)            108.435          calculate D2E/DX2 analytically  !
 ! A16   A(5,6,7)              112.0252         calculate D2E/DX2 analytically  !
 ! A17   A(5,6,18)             108.4945         calculate D2E/DX2 analytically  !
 ! A18   A(5,6,19)             109.9588         calculate D2E/DX2 analytically  !
 ! A19   A(7,6,18)             109.8854         calculate D2E/DX2 analytically  !
 ! A20   A(7,6,19)             108.1506         calculate D2E/DX2 analytically  !
 ! A21   A(18,6,19)            108.2587         calculate D2E/DX2 analytically  !
 ! A22   A(6,7,8)              110.8774         calculate D2E/DX2 analytically  !
 ! A23   A(6,7,20)             110.828          calculate D2E/DX2 analytically  !
 ! A24   A(6,7,21)             108.6794         calculate D2E/DX2 analytically  !
 ! A25   A(8,7,20)             111.3233         calculate D2E/DX2 analytically  !
 ! A26   A(8,7,21)             106.445          calculate D2E/DX2 analytically  !
 ! A27   A(20,7,21)            108.5271         calculate D2E/DX2 analytically  !
 ! A28   A(7,8,9)              121.4299         calculate D2E/DX2 analytically  !
 ! A29   A(7,8,10)             116.3389         calculate D2E/DX2 analytically  !
 ! A30   A(9,8,10)             122.2295         calculate D2E/DX2 analytically  !
 ! A31   A(8,10,11)            121.2637         calculate D2E/DX2 analytically  !
 ! A32   A(8,10,22)            117.1428         calculate D2E/DX2 analytically  !
 ! A33   A(11,10,22)           121.5893         calculate D2E/DX2 analytically  !
 ! A34   A(10,11,23)           120.1675         calculate D2E/DX2 analytically  !
 ! A35   A(10,11,24)           122.5448         calculate D2E/DX2 analytically  !
 ! A36   A(23,11,24)           117.2877         calculate D2E/DX2 analytically  !
 ! A37   A(2,12,13)            123.8755         calculate D2E/DX2 analytically  !
 ! A38   A(2,12,25)            121.4119         calculate D2E/DX2 analytically  !
 ! A39   A(13,12,25)           114.6751         calculate D2E/DX2 analytically  !
 ! A40   A(12,13,14)           121.8693         calculate D2E/DX2 analytically  !
 ! A41   A(4,14,13)            121.6491         calculate D2E/DX2 analytically  !
 ! A42   A(4,14,26)            124.3286         calculate D2E/DX2 analytically  !
 ! A43   A(13,14,26)           113.9984         calculate D2E/DX2 analytically  !
 ! D1    D(1,2,3,4)           -179.812          calculate D2E/DX2 analytically  !
 ! D2    D(1,2,3,15)            -0.4125         calculate D2E/DX2 analytically  !
 ! D3    D(12,2,3,4)             0.5415         calculate D2E/DX2 analytically  !
 ! D4    D(12,2,3,15)          179.941          calculate D2E/DX2 analytically  !
 ! D5    D(1,2,12,13)         -178.0936         calculate D2E/DX2 analytically  !
 ! D6    D(1,2,12,25)           -0.4414         calculate D2E/DX2 analytically  !
 ! D7    D(3,2,12,13)            1.5609         calculate D2E/DX2 analytically  !
 ! D8    D(3,2,12,25)          179.2131         calculate D2E/DX2 analytically  !
 ! D9    D(2,3,4,5)            177.2712         calculate D2E/DX2 analytically  !
 ! D10   D(2,3,4,14)            -1.4211         calculate D2E/DX2 analytically  !
 ! D11   D(15,3,4,5)            -2.1067         calculate D2E/DX2 analytically  !
 ! D12   D(15,3,4,14)          179.201          calculate D2E/DX2 analytically  !
 ! D13   D(3,4,5,6)            -72.5426         calculate D2E/DX2 analytically  !
 ! D14   D(3,4,5,16)            47.6358         calculate D2E/DX2 analytically  !
 ! D15   D(3,4,5,17)           166.3049         calculate D2E/DX2 analytically  !
 ! D16   D(14,4,5,6)           106.1265         calculate D2E/DX2 analytically  !
 ! D17   D(14,4,5,16)         -133.6951         calculate D2E/DX2 analytically  !
 ! D18   D(14,4,5,17)          -15.026          calculate D2E/DX2 analytically  !
 ! D19   D(3,4,14,13)            0.3244         calculate D2E/DX2 analytically  !
 ! D20   D(3,4,14,26)         -177.7871         calculate D2E/DX2 analytically  !
 ! D21   D(5,4,14,13)         -178.3996         calculate D2E/DX2 analytically  !
 ! D22   D(5,4,14,26)            3.4888         calculate D2E/DX2 analytically  !
 ! D23   D(4,5,6,7)            -53.9002         calculate D2E/DX2 analytically  !
 ! D24   D(4,5,6,18)          -175.3809         calculate D2E/DX2 analytically  !
 ! D25   D(4,5,6,19)            66.3929         calculate D2E/DX2 analytically  !
 ! D26   D(16,5,6,7)          -174.5928         calculate D2E/DX2 analytically  !
 ! D27   D(16,5,6,18)           63.9264         calculate D2E/DX2 analytically  !
 ! D28   D(16,5,6,19)          -54.2997         calculate D2E/DX2 analytically  !
 ! D29   D(17,5,6,7)            67.2712         calculate D2E/DX2 analytically  !
 ! D30   D(17,5,6,18)          -54.2095         calculate D2E/DX2 analytically  !
 ! D31   D(17,5,6,19)         -172.4357         calculate D2E/DX2 analytically  !
 ! D32   D(5,6,7,8)             81.049          calculate D2E/DX2 analytically  !
 ! D33   D(5,6,7,20)           -43.1099         calculate D2E/DX2 analytically  !
 ! D34   D(5,6,7,21)          -162.2855         calculate D2E/DX2 analytically  !
 ! D35   D(18,6,7,8)          -158.2735         calculate D2E/DX2 analytically  !
 ! D36   D(18,6,7,20)           77.5677         calculate D2E/DX2 analytically  !
 ! D37   D(18,6,7,21)          -41.6079         calculate D2E/DX2 analytically  !
 ! D38   D(19,6,7,8)           -40.2912         calculate D2E/DX2 analytically  !
 ! D39   D(19,6,7,20)         -164.4501         calculate D2E/DX2 analytically  !
 ! D40   D(19,6,7,21)           76.3744         calculate D2E/DX2 analytically  !
 ! D41   D(6,7,8,9)             50.6715         calculate D2E/DX2 analytically  !
 ! D42   D(6,7,8,10)          -129.7854         calculate D2E/DX2 analytically  !
 ! D43   D(20,7,8,9)           174.5475         calculate D2E/DX2 analytically  !
 ! D44   D(20,7,8,10)           -5.9093         calculate D2E/DX2 analytically  !
 ! D45   D(21,7,8,9)           -67.3615         calculate D2E/DX2 analytically  !
 ! D46   D(21,7,8,10)          112.1816         calculate D2E/DX2 analytically  !
 ! D47   D(7,8,10,11)          167.1615         calculate D2E/DX2 analytically  !
 ! D48   D(7,8,10,22)          -12.108          calculate D2E/DX2 analytically  !
 ! D49   D(9,8,10,11)          -13.2993         calculate D2E/DX2 analytically  !
 ! D50   D(9,8,10,22)          167.4311         calculate D2E/DX2 analytically  !
 ! D51   D(8,10,11,23)           0.4662         calculate D2E/DX2 analytically  !
 ! D52   D(8,10,11,24)        -179.4207         calculate D2E/DX2 analytically  !
 ! D53   D(22,10,11,23)        179.7032         calculate D2E/DX2 analytically  !
 ! D54   D(22,10,11,24)         -0.1838         calculate D2E/DX2 analytically  !
 ! D55   D(2,12,13,14)          -2.7755         calculate D2E/DX2 analytically  !
 ! D56   D(25,12,13,14)        179.4294         calculate D2E/DX2 analytically  !
 ! D57   D(12,13,14,4)           1.7597         calculate D2E/DX2 analytically  !
 ! D58   D(12,13,14,26)       -179.9473         calculate D2E/DX2 analytically  !
 --------------------------------------------------------------------------------
 Trust Radius=3.00D-01 FncErr=1.00D-07 GrdErr=1.00D-06 EigMax=2.50D+02 EigMin=1.00D-04
 Number of steps in this run=    137 maximum allowed number of steps=    156.
 GradGradGradGradGradGradGradGradGradGradGradGradGradGradGradGradGradGrad

 Leave Link  103 at Sat Jan 31 19:41:06 2026, MaxMem=  8589934592 cpu:               0.4 elap:               0.0
 (Enter /root/g16/l202.exe)
                          Input orientation:                          
 ---------------------------------------------------------------------
 Center     Atomic      Atomic             Coordinates (Angstroms)
 Number     Number       Type             X           Y           Z
 ---------------------------------------------------------------------
      1          8           0        2.804371   -0.771838   -1.569402
      2          6           0        2.013394   -0.739417   -0.619548
      3          6           0        0.711464   -1.371948   -0.607596
      4          6           0       -0.126888   -1.297971    0.478405
      5          6           0       -1.501410   -1.902583    0.469936
      6          6           0       -2.467877   -1.096290   -0.409160
      7          6           0       -2.502492    0.385004   -0.016398
      8          6           0       -1.327190    1.132338   -0.620094
      9          8           0       -1.065031    1.050693   -1.802856
     10          6           0       -0.533644    1.966892    0.307927
     11          6           0        0.649651    2.458318   -0.046328
     12          6           0        2.305484   -0.059778    0.616363
     13          8           0        1.502607   -0.042364    1.643498
     14          6           0        0.322773   -0.609909    1.608654
     15          1           0        0.414472   -1.903413   -1.499400
     16          1           0       -1.447607   -2.921207    0.082983
     17          1           0       -1.886629   -1.940900    1.489969
     18          1           0       -3.464459   -1.528598   -0.314125
     19          1           0       -2.164280   -1.163633   -1.455282
     20          1           0       -2.529605    0.497994    1.066697
     21          1           0       -3.405021    0.837300   -0.435489
     22          1           0       -0.951625    2.148552    1.287500
     23          1           0        1.047411    2.258623   -1.028963
     24          1           0        1.248523    3.060322    0.615635
     25          1           0        3.244887    0.451676    0.769407
     26          1           0       -0.235302   -0.518286    2.526879
 ---------------------------------------------------------------------
                    Distance matrix (angstroms):
                    1          2          3          4          5
     1  O    0.000000
     2  C    1.236494   0.000000
     3  C    2.380223   1.447502   0.000000
     4  C    3.614223   2.469472   1.373938   0.000000
     5  C    4.896656   3.859246   2.517829   1.501645   0.000000
     6  C    5.408145   4.500380   3.197433   2.511708   1.535245
     7  C    5.649151   4.692690   3.710245   2.953089   2.543961
     8  C    4.647244   3.829226   3.229198   2.924693   3.229437
     9  O    4.283503   3.752521   3.233230   3.405949   3.752046
    10  C    4.708222   3.830368   3.679175   3.294517   3.991948
    11  C    4.170909   3.523334   3.871664   3.871442   4.889892
    12  C    2.352337   1.440383   2.400160   2.732871   4.231999
    13  O    3.542520   2.422429   2.731506   2.364158   3.723141
    14  C    4.035417   2.799975   2.375616   1.397529   2.509049
    15  H    2.645180   2.164620   1.079802   2.138070   2.747525
    16  H    5.042765   4.151179   2.745667   2.129683   1.090973
    17  H    5.721184   4.593889   3.387267   2.129158   1.091022
    18  H    6.437907   5.542831   4.189153   3.438121   2.146667
    19  H    4.985381   4.281515   3.005308   2.812145   2.166082
    20  H    6.083814   5.001345   4.099326   3.056899   2.678820
    21  H    6.513957   5.646161   4.675024   4.017554   3.456947
    22  H    5.549601   4.557251   4.330263   3.635017   4.169216
    23  H    3.544387   3.176316   3.670348   4.037387   5.104784
    24  H    4.677660   4.068011   4.629227   4.572232   5.675718
    25  H    2.676017   2.205555   3.411741   3.809831   5.306558
    26  H    5.107193   3.873698   3.383791   2.194518   2.783939
                    6          7          8          9         10
     6  C    0.000000
     7  C    1.532870   0.000000
     8  C    2.512458   1.517990   0.000000
     9  O    2.918888   2.387650   1.214215   0.000000
    10  C    3.693042   2.546354   1.478993   2.361609   0.000000
    11  C    4.741927   3.773001   2.448537   2.829652   1.329355
    12  C    4.991095   4.869790   4.018244   4.294896   3.501881
    13  O    4.592266   4.356457   3.809399   4.434511   3.157083
    14  C    3.477911   3.407751   3.274923   4.040050   3.010854
    15  H    3.185594   3.993098   3.608650   3.317794   4.375456
    16  H    2.147901   3.471842   4.115829   4.413473   4.977895
    17  H    2.158218   2.838707   3.769633   4.524086   4.301004
    18  H    1.090457   2.162382   3.426678   3.824438   4.603812
    19  H    1.091365   2.140806   2.582584   2.496477   3.945639
    20  H    2.173409   1.089309   2.166439   3.268759   2.591766
    21  H    2.148884   1.093054   2.106776   2.718599   3.173870
    22  H    3.963165   2.686157   2.193776   3.281532   1.080403
    23  H    4.898658   4.139752   2.659778   2.553510   2.090960
    24  H    5.669149   4.650473   3.446512   3.903874   2.113383
    25  H    6.034973   5.801233   4.826791   5.054775   4.097089
    26  H    3.733470   3.524817   3.717555   4.679396   3.344975
                   11         12         13         14         15
    11  C    0.000000
    12  C    3.085733   0.000000
    13  O    3.136312   1.303809   0.000000
    14  C    3.501405   2.284388   1.309706   0.000000
    15  H    4.603414   3.383987   3.811213   3.367723   0.000000
    16  H    5.775335   4.749522   4.407573   3.286946   2.647108
    17  H    5.305285   4.677138   3.887793   2.582069   3.772639
    18  H    5.735253   6.026233   5.541924   4.345595   4.073263
    19  H    4.798113   5.048663   4.930085   3.984940   2.683130
    20  H    3.897353   4.887944   4.108944   3.107608   4.584670
    21  H    4.384006   5.875458   5.401926   4.491034   4.819952
    22  H    2.106926   3.991980   3.309094   3.055542   5.104063
    23  H    1.078731   3.108830   3.555810   3.963660   4.236091
    24  H    1.076685   3.294266   3.278372   3.913272   5.459641
    25  H    3.380427   1.080503   2.010883   3.220256   4.324949
    26  H    4.032953   3.211836   2.006787   1.078415   4.307169
                   16         17         18         19         20
    16  H    0.000000
    17  H    1.770128   0.000000
    18  H    2.482891   2.431933   0.000000
    19  H    2.443143   3.058715   1.768023   0.000000
    20  H    3.718783   2.557496   2.624443   3.042177   0.000000
    21  H    4.269269   3.705577   2.369754   2.565764   1.771452
    22  H    5.234435   4.199863   4.732967   4.468104   2.294148
    23  H    5.855951   5.708730   5.933886   4.712594   4.504069
    24  H    6.582668   5.967065   6.643406   5.811859   4.587290
    25  H    5.819538   5.707547   7.078903   6.067747   5.782325
    26  H    3.635428   2.413689   4.418086   4.471580   2.903236
                   21         22         23         24         25
    21  H    0.000000
    22  H    3.272189   0.000000
    23  H    4.711318   3.061741   0.000000
    24  H    5.263284   2.474546   1.840616   0.000000
    25  H    6.769177   4.556153   3.365724   3.288488   0.000000
    26  H    4.545366   3.026748   4.690478   4.319841   4.017618
                   26
    26  H    0.000000
 Stoichiometry    C11H12O3
 Framework group  C1[X(C11H12O3)]
 Deg. of freedom    72
 Full point group                 C1      NOp   1
 Largest Abelian subgroup         C1      NOp   1
 Largest concise Abelian subgroup C1      NOp   1
                         Standard orientation:                         
 ---------------------------------------------------------------------
 Center     Atomic      Atomic             Coordinates (Angstroms)
 Number     Number       Type             X           Y           Z
 ---------------------------------------------------------------------
      1          8           0        2.758457   -0.397928   -1.703206
      2          6           0        2.002357   -0.522491   -0.732786
      3          6           0        0.724161   -1.201091   -0.764042
      4          6           0       -0.075662   -1.304392    0.348305
      5          6           0       -1.428067   -1.955450    0.302879
      6          6           0       -2.453285   -1.077838   -0.429038
      7          6           0       -2.524082    0.335817    0.159400
      8          6           0       -1.398078    1.201674   -0.376043
      9          8           0       -1.177021    1.287840   -1.566853
     10          6           0       -0.599914    1.935966    0.629525
     11          6           0        0.552019    2.515601    0.306635
     12          6           0        2.316341   -0.001928    0.573020
     13          8           0        1.551716   -0.152066    1.618356
     14          6           0        0.391513   -0.755356    1.545550
     15          1           0        0.412884   -1.620725   -1.709023
     16          1           0       -1.353725   -2.910898   -0.218478
     17          1           0       -1.773917   -2.143626    1.320380
     18          1           0       -3.430311   -1.557297   -0.360950
     19          1           0       -2.186299   -0.994018   -1.483917
     20          1           0       -2.515134    0.303039    1.248179
     21          1           0       -3.456384    0.804308   -0.166324
     22          1           0       -0.987503    1.969751    1.637446
     23          1           0        0.919916    2.463575   -0.706088
     24          1           0        1.153913    3.047298    1.023762
     25          1           0        3.242690    0.520799    0.763073
     26          1           0       -0.135171   -0.808048    2.485128
 ---------------------------------------------------------------------
 Rotational constants (GHZ):           0.9684244           0.6580555           0.5752541
 Leave Link  202 at Sat Jan 31 19:41:06 2026, MaxMem=  8589934592 cpu:               0.3 elap:               0.0
 (Enter /root/g16/l301.exe)
 Standard basis: def2SVP (5D, 7F)
 Ernie: Thresh=  0.10000D-02 Tol=  0.10000D-05 Strict=F.
 There are   270 symmetry adapted cartesian basis functions of A   symmetry.
 There are   256 symmetry adapted basis functions of A   symmetry.
   256 basis functions,   434 primitive gaussians,   270 cartesian basis functions
    51 alpha electrons       51 beta electrons
       nuclear repulsion energy       916.1037312158 Hartrees.
 IExCor=  402 DFT=T Ex+Corr=B3LYP ExCW=0 ScaHFX=  0.200000
 ScaDFX=  0.800000  0.720000  1.000000  0.810000 ScalE2=  1.000000  1.000000
 IRadAn=      5 IRanWt=     -1 IRanGd=            0 ICorTp=0 IEmpDi=141
 NAtoms=   26 NActive=   26 NUniq=   26 SFac= 1.00D+00 NAtFMM=   60 NAOKFM=F Big=F
 Integral buffers will be    131072 words long.
 Raffenetti 2 integral format.
 Two-electron integral symmetry is turned on.
 R6Disp:  Grimme-D3(BJ) Dispersion energy=       -0.0566384908 Hartrees.
 Nuclear repulsion after empirical dispersion term =      916.0470927250 Hartrees.
 Force inversion solution in PCM.
 ------------------------------------------------------------------------------
 Polarizable Continuum Model (PCM)
 =================================
 Model                : PCM.
 Atomic radii         : UFF (Universal Force Field).
 Polarization charges : Total charges.
 Charge compensation  : None.
 Solution method      : Matrix inversion.
 Cavity type          : Scaled VdW (van der Waals Surface) (Alpha=1.100).
 Cavity algorithm     : GePol (No added spheres)
                        Default sphere list used, NSphG=   26.
                        Lebedev-Laikov grids with approx.  5.0 points / Ang**2.
                        Smoothing algorithm: York/Karplus (Gamma=1.0000).
                        Polarization charges: spherical gaussians, with
                                              point-specific exponents (IZeta= 3).
                        Self-potential: point-specific (ISelfS= 7).
                        Self-field    : sphere-specific E.n sum rule (ISelfD= 2).
 1st derivatives      : Analytical E(r).r(x)/FMM algorithm (CHGder, D1EAlg=3).
                        Cavity 1st derivative terms included.
 2nd derivatives      : Analytical E(r).r(xy)/FMM algorithm (CHGder, D2EAlg=3).
                        Cavity 2nd derivative terms included.
 Solvent              : Acetone, Eps=  20.493000 Eps(inf)=   1.846337
 ------------------------------------------------------------------------------
 GePol: Number of generator spheres                  =      26
 GePol: Total number of spheres                      =      26
 GePol: Number of exposed spheres                    =      26 (100.00%)
 GePol: Number of points                             =    1868
 GePol: Average weight of points                     =       0.13
 GePol: Minimum weight of points                     =   0.24D-11
 GePol: Maximum weight of points                     =    0.20577
 GePol: Number of points with low weight             =     124
 GePol: Fraction of low-weight points (<1% of avg)   =       6.64%
 GePol: Cavity surface area                          =    246.359 Ang**2
 GePol: Cavity volume                                =    271.755 Ang**3
 Leave Link  301 at Sat Jan 31 19:41:06 2026, MaxMem=  8589934592 cpu:               0.6 elap:               0.0
 (Enter /root/g16/l302.exe)
 NPDir=0 NMtPBC=     1 NCelOv=     1 NCel=       1 NClECP=     1 NCelD=      1
         NCelK=      1 NCelE2=     1 NClLst=     1 CellRange=     0.0.
 One-electron integrals computed using PRISM.
 One-electron integral symmetry used in STVInt
   1 Symmetry operations used in ECPInt.
 ECPInt:  NShTT=    7260 NPrTT=   26324 LenC2=    7132 LenP2D=   19666.
 LDataN:  DoStor=T MaxTD1= 4 Len=   56
 NBasis=   256 RedAO= T EigKep=  6.00D-04  NBF=   256
 NBsUse=   256 1.00D-06 EigRej= -1.00D+00 NBFU=   256
 Precomputing XC quadrature grid using
 IXCGrd= 4 IRadAn=           5 IRanWt=          -1 IRanGd=           0 AccXCQ= 0.00D+00.
 Generated NRdTot=       0 NPtTot=           0 NUsed=           0 NTot=          32
 NSgBfM=   270   270   270   270   270 MxSgAt=    26 MxSgA2=    26.
 Leave Link  302 at Sat Jan 31 19:41:06 2026, MaxMem=  8589934592 cpu:               2.1 elap:               0.1
 (Enter /root/g16/l303.exe)
 DipDrv:  MaxL=1.
 Leave Link  303 at Sat Jan 31 19:41:06 2026, MaxMem=  8589934592 cpu:               0.3 elap:               0.0
 (Enter /root/g16/l401.exe)
 ExpMin= 1.22D-01 ExpMax= 2.27D+03 ExpMxC= 3.41D+02 IAcc=3 IRadAn=         5 AccDes= 0.00D+00
 Harris functional with IExCor=  402 and IRadAn=       5 diagonalized for initial guess.
 HarFok:  IExCor=  402 AccDes= 0.00D+00 IRadAn=         5 IDoV= 1 UseB2=F ITyADJ=14
 ICtDFT=  3500011 ScaDFX=  1.000000  1.000000  1.000000  1.000000
 FoFCou: FMM=F IPFlag=           0 FMFlag=      100000 FMFlg1=           0
         NFxFlg=           0 DoJE=T BraDBF=F KetDBF=T FulRan=T
         wScrn=  0.000000 ICntrl=       500 IOpCl=  0 I1Cent=   200000004 NGrid=           0
         NMat0=    1 NMatS0=      1 NMatT0=    0 NMatD0=    1 NMtDS0=    0 NMtDT0=    0
 Petite list used in FoFCou.
 Harris En= -651.590914560243    
 JPrj=0 DoOrth=F DoCkMO=F.
 Leave Link  401 at Sat Jan 31 19:41:07 2026, MaxMem=  8589934592 cpu:               8.4 elap:               0.6
 (Enter /root/g16/l502.exe)
 Integral symmetry usage will be decided dynamically.
 Closed shell SCF:
 Using DIIS extrapolation, IDIIS=  1040.
 NGot=  8589934592 LenX=  8589781498 LenY=  8589708157
 Requested convergence on RMS density matrix=1.00D-08 within 128 cycles.
 Requested convergence on MAX density matrix=1.00D-06.
 Requested convergence on             energy=1.00D-06.
 No special actions if energy rises.
 Fock matrices will be formed incrementally for  20 cycles.

 Cycle   1  Pass 1  IDiag  1:
 FoFJK:  IHMeth= 1 ICntrl=       0 DoSepK=F KAlg= 0 I1Cent=           0 FoldK=F
 IRaf= 950000000 NMat=       1 IRICut=       1 DoRegI=T DoRafI=F ISym2E= 0 IDoP0=0 IntGTp=1.
 FoFCou: FMM=F IPFlag=           0 FMFlag=      100000 FMFlg1=           0
         NFxFlg=           0 DoJE=F BraDBF=F KetDBF=F FulRan=T
         wScrn=  0.000000 ICntrl=         0 IOpCl=  0 I1Cent=           0 NGrid=           0
         NMat0=    1 NMatS0=      1 NMatT0=    0 NMatD0=    1 NMtDS0=    0 NMtDT0=    0
 Symmetry not used in FoFCou.
 Inv3:  Mode=1 IEnd=    10468272.
 Iteration    1 A*A^-1 deviation from unit magnitude is 2.89D-15 for   1480.
 Iteration    1 A*A^-1 deviation from orthogonality  is 1.62D-15 for   1573    211.
 Iteration    1 A^-1*A deviation from unit magnitude is 3.33D-15 for   1631.
 Iteration    1 A^-1*A deviation from orthogonality  is 2.61D-15 for   1296    888.
 E= -651.224485965373    
 DIIS: error= 3.46D-02 at cycle   1 NSaved=   1.
 NSaved= 1 IEnMin= 1 EnMin= -651.224485965373     IErMin= 1 ErrMin= 3.46D-02
 ErrMax= 3.46D-02  0.00D+00 EMaxC= 1.00D-01 BMatC= 3.48D-01 BMatP= 3.48D-01
 IDIUse=3 WtCom= 6.54D-01 WtEn= 3.46D-01
 Coeff-Com:  0.100D+01
 Coeff-En:   0.100D+01
 Coeff:      0.100D+01
 Gap=     0.165 Goal=   None    Shift=    0.000
 GapD=    0.165 DampG=1.000 DampE=0.500 DampFc=0.5000 IDamp=-1.
 Damping current iteration by 5.00D-01
 RMSDP=8.18D-03 MaxDP=2.91D-01              OVMax= 9.57D-01

 Cycle   2  Pass 1  IDiag  1:
 RMSU=  4.03D-03    CP:  9.69D-01
 E= -650.950930823998     Delta-E=        0.273555141376 Rises=F Damp=T
 DIIS: error= 5.90D-02 at cycle   2 NSaved=   2.
 NSaved= 2 IEnMin= 1 EnMin= -651.224485965373     IErMin= 1 ErrMin= 3.46D-02
 ErrMax= 5.90D-02  0.00D+00 EMaxC= 1.00D-01 BMatC= 2.18D-01 BMatP= 3.48D-01
 IDIUse=3 WtCom= 4.10D-01 WtEn= 5.90D-01
 Coeff-Com:  0.419D+00 0.581D+00
 Coeff-En:   0.705D+00 0.295D+00
 Coeff:      0.588D+00 0.412D+00
 Gap=    -0.198 Goal=   None    Shift=    0.000
 RMSDP=3.60D-03 MaxDP=1.07D-01 DE= 2.74D-01 OVMax= 8.62D-01

 Cycle   3  Pass 1  IDiag  1:
 RMSU=  3.21D-03    CP:  9.64D-01  5.97D-01
 E= -651.417063489527     Delta-E=       -0.466132665529 Rises=F Damp=F
 DIIS: error= 2.95D-02 at cycle   3 NSaved=   3.
 NSaved= 3 IEnMin= 3 EnMin= -651.417063489527     IErMin= 3 ErrMin= 2.95D-02
 ErrMax= 2.95D-02  0.00D+00 EMaxC= 1.00D-01 BMatC= 1.46D-01 BMatP= 2.18D-01
 IDIUse=3 WtCom= 7.05D-01 WtEn= 2.95D-01
 EnCoef did     1 forward-backward iterations
 Coeff-Com:  0.255D+00 0.334D+00 0.411D+00
 Coeff-En:   0.225D+00 0.649D-02 0.769D+00
 Coeff:      0.246D+00 0.237D+00 0.516D+00
 Gap=     0.179 Goal=   None    Shift=    0.000
 RMSDP=2.62D-03 MaxDP=1.12D-01 DE=-4.66D-01 OVMax= 1.81D-01

 Cycle   4  Pass 1  IDiag  1:
 RMSU=  2.28D-03    CP:  9.77D-01  4.18D-01  6.80D-01
 E= -651.547805650537     Delta-E=       -0.130742161010 Rises=F Damp=F
 DIIS: error= 7.23D-03 at cycle   4 NSaved=   4.
 NSaved= 4 IEnMin= 4 EnMin= -651.547805650537     IErMin= 4 ErrMin= 7.23D-03
 ErrMax= 7.23D-03  0.00D+00 EMaxC= 1.00D-01 BMatC= 2.13D-02 BMatP= 1.46D-01
 IDIUse=3 WtCom= 9.28D-01 WtEn= 7.23D-02
 Coeff-Com:  0.889D-01 0.123D+00 0.277D+00 0.511D+00
 Coeff-En:   0.000D+00 0.000D+00 0.761D-01 0.924D+00
 Coeff:      0.825D-01 0.114D+00 0.263D+00 0.541D+00
 Gap=     0.138 Goal=   None    Shift=    0.000
 RMSDP=1.11D-03 MaxDP=6.05D-02 DE=-1.31D-01 OVMax= 1.23D-01

 Cycle   5  Pass 1  IDiag  1:
 RMSU=  5.57D-04    CP:  9.75D-01  4.54D-01  7.37D-01  5.92D-01
 E= -651.560268416349     Delta-E=       -0.012462765812 Rises=F Damp=F
 DIIS: error= 6.66D-03 at cycle   5 NSaved=   5.
 NSaved= 5 IEnMin= 5 EnMin= -651.560268416349     IErMin= 5 ErrMin= 6.66D-03
 ErrMax= 6.66D-03  0.00D+00 EMaxC= 1.00D-01 BMatC= 7.56D-03 BMatP= 2.13D-02
 IDIUse=3 WtCom= 9.33D-01 WtEn= 6.66D-02
 Coeff-Com:  0.304D-02 0.470D-01 0.857D-01 0.390D+00 0.474D+00
 Coeff-En:   0.000D+00 0.000D+00 0.000D+00 0.308D+00 0.692D+00
 Coeff:      0.283D-02 0.439D-01 0.799D-01 0.384D+00 0.489D+00
 Gap=     0.132 Goal=   None    Shift=    0.000
 RMSDP=4.65D-04 MaxDP=2.66D-02 DE=-1.25D-02 OVMax= 5.89D-02

 Cycle   6  Pass 1  IDiag  1:
 RMSU=  1.87D-04    CP:  9.76D-01  4.49D-01  7.35D-01  7.45D-01  5.62D-01
 E= -651.567445921283     Delta-E=       -0.007177504934 Rises=F Damp=F
 DIIS: error= 1.84D-03 at cycle   6 NSaved=   6.
 NSaved= 6 IEnMin= 6 EnMin= -651.567445921283     IErMin= 6 ErrMin= 1.84D-03
 ErrMax= 1.84D-03  0.00D+00 EMaxC= 1.00D-01 BMatC= 4.28D-04 BMatP= 7.56D-03
 IDIUse=3 WtCom= 9.82D-01 WtEn= 1.84D-02
 Coeff-Com: -0.144D-01 0.167D-01 0.935D-03 0.158D+00 0.272D+00 0.567D+00
 Coeff-En:   0.000D+00 0.000D+00 0.000D+00 0.000D+00 0.000D+00 0.100D+01
 Coeff:     -0.141D-01 0.164D-01 0.917D-03 0.155D+00 0.267D+00 0.575D+00
 Gap=     0.132 Goal=   None    Shift=    0.000
 RMSDP=1.09D-04 MaxDP=4.61D-03 DE=-7.18D-03 OVMax= 1.30D-02

 Cycle   7  Pass 1  IDiag  1:
 RMSU=  8.22D-05    CP:  9.76D-01  4.50D-01  7.39D-01  7.63D-01  6.40D-01
                    CP:  8.08D-01
 E= -651.567787692014     Delta-E=       -0.000341770731 Rises=F Damp=F
 DIIS: error= 5.78D-04 at cycle   7 NSaved=   7.
 NSaved= 7 IEnMin= 7 EnMin= -651.567787692014     IErMin= 7 ErrMin= 5.78D-04
 ErrMax= 5.78D-04  0.00D+00 EMaxC= 1.00D-01 BMatC= 8.91D-05 BMatP= 4.28D-04
 IDIUse=3 WtCom= 9.94D-01 WtEn= 5.78D-03
 Coeff-Com: -0.103D-01 0.784D-02-0.123D-01 0.452D-01 0.973D-01 0.361D+00
 Coeff-Com:  0.511D+00
 Coeff-En:   0.000D+00 0.000D+00 0.000D+00 0.000D+00 0.000D+00 0.652D-01
 Coeff-En:   0.935D+00
 Coeff:     -0.102D-01 0.779D-02-0.122D-01 0.449D-01 0.967D-01 0.360D+00
 Coeff:      0.513D+00
 Gap=     0.132 Goal=   None    Shift=    0.000
 RMSDP=4.84D-05 MaxDP=1.63D-03 DE=-3.42D-04 OVMax= 5.03D-03

 Cycle   8  Pass 1  IDiag  1:
 RMSU=  2.87D-05    CP:  9.76D-01  4.53D-01  7.38D-01  7.73D-01  6.31D-01
                    CP:  8.28D-01  6.31D-01
 E= -651.567865565209     Delta-E=       -0.000077873195 Rises=F Damp=F
 DIIS: error= 4.12D-04 at cycle   8 NSaved=   8.
 NSaved= 8 IEnMin= 8 EnMin= -651.567865565209     IErMin= 8 ErrMin= 4.12D-04
 ErrMax= 4.12D-04  0.00D+00 EMaxC= 1.00D-01 BMatC= 1.42D-05 BMatP= 8.91D-05
 IDIUse=3 WtCom= 9.96D-01 WtEn= 4.12D-03
 Coeff-Com: -0.494D-02 0.343D-02-0.913D-02 0.387D-02 0.157D-01 0.123D+00
 Coeff-Com:  0.310D+00 0.558D+00
 Coeff-En:   0.000D+00 0.000D+00 0.000D+00 0.000D+00 0.000D+00 0.000D+00
 Coeff-En:   0.000D+00 0.100D+01
 Coeff:     -0.492D-02 0.341D-02-0.909D-02 0.386D-02 0.157D-01 0.123D+00
 Coeff:      0.308D+00 0.560D+00
 Gap=     0.132 Goal=   None    Shift=    0.000
 RMSDP=1.66D-05 MaxDP=5.07D-04 DE=-7.79D-05 OVMax= 1.25D-03

 Cycle   9  Pass 1  IDiag  1:
 RMSU=  1.03D-05    CP:  9.76D-01  4.52D-01  7.38D-01  7.74D-01  6.39D-01
                    CP:  8.53D-01  7.19D-01  7.14D-01
 E= -651.567876510212     Delta-E=       -0.000010945003 Rises=F Damp=F
 DIIS: error= 1.56D-04 at cycle   9 NSaved=   9.
 NSaved= 9 IEnMin= 9 EnMin= -651.567876510212     IErMin= 9 ErrMin= 1.56D-04
 ErrMax= 1.56D-04  0.00D+00 EMaxC= 1.00D-01 BMatC= 2.22D-06 BMatP= 1.42D-05
 IDIUse=3 WtCom= 9.98D-01 WtEn= 1.56D-03
 Coeff-Com: -0.120D-02 0.119D-02-0.311D-02-0.523D-02-0.102D-01-0.621D-02
 Coeff-Com:  0.667D-01 0.284D+00 0.674D+00
 Coeff-En:   0.000D+00 0.000D+00 0.000D+00 0.000D+00 0.000D+00 0.000D+00
 Coeff-En:   0.000D+00 0.000D+00 0.100D+01
 Coeff:     -0.120D-02 0.118D-02-0.311D-02-0.522D-02-0.102D-01-0.620D-02
 Coeff:      0.665D-01 0.284D+00 0.675D+00
 Gap=     0.132 Goal=   None    Shift=    0.000
 RMSDP=6.26D-06 MaxDP=3.07D-04 DE=-1.09D-05 OVMax= 6.01D-04

 Cycle  10  Pass 1  IDiag  1:
 RMSU=  3.26D-06    CP:  9.76D-01  4.53D-01  7.38D-01  7.75D-01  6.38D-01
                    CP:  8.62D-01  7.34D-01  7.83D-01  7.80D-01
 E= -651.567878519502     Delta-E=       -0.000002009290 Rises=F Damp=F
 DIIS: error= 6.86D-05 at cycle  10 NSaved=  10.
 NSaved=10 IEnMin=10 EnMin= -651.567878519502     IErMin=10 ErrMin= 6.86D-05
 ErrMax= 6.86D-05  0.00D+00 EMaxC= 1.00D-01 BMatC= 2.86D-07 BMatP= 2.22D-06
 IDIUse=1 WtCom= 1.00D+00 WtEn= 0.00D+00
 Coeff-Com: -0.156D-03 0.288D-03-0.657D-03-0.282D-02-0.708D-02-0.204D-01
 Coeff-Com: -0.886D-02 0.510D-01 0.289D+00 0.700D+00
 Coeff:     -0.156D-03 0.288D-03-0.657D-03-0.282D-02-0.708D-02-0.204D-01
 Coeff:     -0.886D-02 0.510D-01 0.289D+00 0.700D+00
 Gap=     0.132 Goal=   None    Shift=    0.000
 RMSDP=2.52D-06 MaxDP=1.07D-04 DE=-2.01D-06 OVMax= 2.71D-04

 Cycle  11  Pass 1  IDiag  1:
 RMSU=  1.11D-06    CP:  9.76D-01  4.53D-01  7.38D-01  7.76D-01  6.39D-01
                    CP:  8.64D-01  7.42D-01  8.09D-01  8.48D-01  8.28D-01
 E= -651.567878778801     Delta-E=       -0.000000259298 Rises=F Damp=F
 DIIS: error= 1.84D-05 at cycle  11 NSaved=  11.
 NSaved=11 IEnMin=11 EnMin= -651.567878778801     IErMin=11 ErrMin= 1.84D-05
 ErrMax= 1.84D-05  0.00D+00 EMaxC= 1.00D-01 BMatC= 2.63D-08 BMatP= 2.86D-07
 IDIUse=1 WtCom= 1.00D+00 WtEn= 0.00D+00
 Coeff-Com: -0.119D-04 0.760D-04-0.653D-04-0.682D-03-0.228D-02-0.926D-02
 Coeff-Com: -0.104D-01-0.685D-02 0.613D-01 0.313D+00 0.655D+00
 Coeff:     -0.119D-04 0.760D-04-0.653D-04-0.682D-03-0.228D-02-0.926D-02
 Coeff:     -0.104D-01-0.685D-02 0.613D-01 0.313D+00 0.655D+00
 Gap=     0.132 Goal=   None    Shift=    0.000
 RMSDP=8.74D-07 MaxDP=4.95D-05 DE=-2.59D-07 OVMax= 5.91D-05

 Cycle  12  Pass 1  IDiag  1:
 RMSU=  4.04D-07    CP:  9.76D-01  4.53D-01  7.38D-01  7.76D-01  6.39D-01
                    CP:  8.63D-01  7.43D-01  8.16D-01  8.65D-01  8.65D-01
                    CP:  7.44D-01
 E= -651.567878801770     Delta-E=       -0.000000022970 Rises=F Damp=F
 DIIS: error= 4.09D-06 at cycle  12 NSaved=  12.
 NSaved=12 IEnMin=12 EnMin= -651.567878801770     IErMin=12 ErrMin= 4.09D-06
 ErrMax= 4.09D-06  0.00D+00 EMaxC= 1.00D-01 BMatC= 2.87D-09 BMatP= 2.63D-08
 IDIUse=1 WtCom= 1.00D+00 WtEn= 0.00D+00
 Coeff-Com:  0.226D-05 0.191D-04 0.183D-04-0.871D-04-0.546D-03-0.311D-02
 Coeff-Com: -0.470D-02-0.946D-02 0.125D-02 0.889D-01 0.356D+00 0.572D+00
 Coeff:      0.226D-05 0.191D-04 0.183D-04-0.871D-04-0.546D-03-0.311D-02
 Coeff:     -0.470D-02-0.946D-02 0.125D-02 0.889D-01 0.356D+00 0.572D+00
 Gap=     0.132 Goal=   None    Shift=    0.000
 RMSDP=2.48D-07 MaxDP=9.23D-06 DE=-2.30D-08 OVMax= 2.16D-05

 Cycle  13  Pass 1  IDiag  1:
 RMSU=  1.39D-07    CP:  9.76D-01  4.53D-01  7.38D-01  7.77D-01  6.39D-01
                    CP:  8.63D-01  7.44D-01  8.16D-01  8.67D-01  8.71D-01
                    CP:  8.03D-01  7.65D-01
 E= -651.567878804275     Delta-E=       -0.000000002505 Rises=F Damp=F
 DIIS: error= 1.54D-06 at cycle  13 NSaved=  13.
 NSaved=13 IEnMin=13 EnMin= -651.567878804275     IErMin=13 ErrMin= 1.54D-06
 ErrMax= 1.54D-06  0.00D+00 EMaxC= 1.00D-01 BMatC= 3.13D-10 BMatP= 2.87D-09
 IDIUse=1 WtCom= 1.00D+00 WtEn= 0.00D+00
 Coeff-Com: -0.325D-05 0.303D-05 0.120D-04 0.494D-04 0.165D-04-0.561D-03
 Coeff-Com: -0.127D-02-0.478D-02-0.825D-02 0.740D-02 0.122D+00 0.327D+00
 Coeff-Com:  0.559D+00
 Coeff:     -0.325D-05 0.303D-05 0.120D-04 0.494D-04 0.165D-04-0.561D-03
 Coeff:     -0.127D-02-0.478D-02-0.825D-02 0.740D-02 0.122D+00 0.327D+00
 Coeff:      0.559D+00
 Gap=     0.132 Goal=   None    Shift=    0.000
 RMSDP=9.70D-08 MaxDP=4.63D-06 DE=-2.51D-09 OVMax= 4.72D-06

 Cycle  14  Pass 1  IDiag  1:
 RMSU=  6.05D-08    CP:  9.76D-01  4.53D-01  7.38D-01  7.77D-01  6.39D-01
                    CP:  8.64D-01  7.44D-01  8.16D-01  8.66D-01  8.74D-01
                    CP:  8.13D-01  7.92D-01  7.18D-01
 E= -651.567878804522     Delta-E=       -0.000000000247 Rises=F Damp=F
 DIIS: error= 1.61D-07 at cycle  14 NSaved=  14.
 NSaved=14 IEnMin=14 EnMin= -651.567878804522     IErMin=14 ErrMin= 1.61D-07
 ErrMax= 1.61D-07  0.00D+00 EMaxC= 1.00D-01 BMatC= 1.26D-11 BMatP= 3.13D-10
 IDIUse=1 WtCom= 1.00D+00 WtEn= 0.00D+00
 Coeff-Com: -0.221D-05-0.132D-06 0.152D-05 0.265D-04 0.704D-04 0.896D-04
 Coeff-Com:  0.162D-04-0.874D-03-0.335D-02-0.720D-02 0.880D-02 0.665D-01
 Coeff-Com:  0.212D+00 0.724D+00
 Coeff:     -0.221D-05-0.132D-06 0.152D-05 0.265D-04 0.704D-04 0.896D-04
 Coeff:      0.162D-04-0.874D-03-0.335D-02-0.720D-02 0.880D-02 0.665D-01
 Coeff:      0.212D+00 0.724D+00
 Gap=     0.132 Goal=   None    Shift=    0.000
 RMSDP=2.67D-08 MaxDP=1.03D-06 DE=-2.47D-10 OVMax= 1.59D-06

 Cycle  15  Pass 1  IDiag  1:
 RMSU=  1.76D-08    CP:  9.76D-01  4.53D-01  7.38D-01  7.77D-01  6.39D-01
                    CP:  8.64D-01  7.44D-01  8.16D-01  8.66D-01  8.73D-01
                    CP:  8.18D-01  8.10D-01  7.85D-01  9.84D-01
 E= -651.567878804538     Delta-E=       -0.000000000016 Rises=F Damp=F
 DIIS: error= 5.86D-08 at cycle  15 NSaved=  15.
 NSaved=15 IEnMin=15 EnMin= -651.567878804538     IErMin=15 ErrMin= 5.86D-08
 ErrMax= 5.86D-08  0.00D+00 EMaxC= 1.00D-01 BMatC= 2.81D-12 BMatP= 1.26D-11
 IDIUse=1 WtCom= 1.00D+00 WtEn= 0.00D+00
 Coeff-Com: -0.107D-05-0.705D-08-0.501D-06 0.837D-05 0.340D-04 0.715D-04
 Coeff-Com:  0.105D-03-0.852D-04-0.955D-03-0.410D-02-0.447D-02 0.107D-01
 Coeff-Com:  0.667D-01 0.412D+00 0.520D+00
 Coeff:     -0.107D-05-0.705D-08-0.501D-06 0.837D-05 0.340D-04 0.715D-04
 Coeff:      0.105D-03-0.852D-04-0.955D-03-0.410D-02-0.447D-02 0.107D-01
 Coeff:      0.667D-01 0.412D+00 0.520D+00
 Gap=     0.132 Goal=   None    Shift=    0.000
 RMSDP=8.92D-09 MaxDP=3.25D-07 DE=-1.63D-11 OVMax= 7.52D-07

 Error on total polarization charges =  0.00906
 SCF Done:  E(RB3LYP) =  -651.567878805     A.U. after   15 cycles
            NFock= 15  Conv=0.89D-08     -V/T= 2.0095
 KE= 6.454553585200D+02 PE=-3.348806852394D+03 EE= 1.135736522344D+03
 Leave Link  502 at Sat Jan 31 19:41:26 2026, MaxMem=  8589934592 cpu:             312.1 elap:              19.6
 (Enter /root/g16/l801.exe)
 DoSCS=F DFT=T ScalE2(SS,OS)=  1.000000  1.000000
 Range of M.O.s used for correlation:     1   256
 NBasis=   256 NAE=    51 NBE=    51 NFC=     0 NFV=     0
 NROrb=    256 NOA=    51 NOB=    51 NVA=   205 NVB=   205
 Leave Link  801 at Sat Jan 31 19:41:26 2026, MaxMem=  8589934592 cpu:               0.3 elap:               0.0
 (Enter /root/g16/l1101.exe)
 Using compressed storage, NAtomX=    26.
 Will process     27 centers per pass.
   1 Symmetry operations used in ECPInt.
 ECPInt:  NShTT=    7260 NPrTT=   26324 LenC2=    7132 LenP2D=   19666.
 LDataN:  DoStor=T MaxTD1= 5 Len=  102
 R6Disp: Adding Grimme-D3(BJ) dispersion energy 1st derivatives to the gradient.
 Leave Link 1101 at Sat Jan 31 19:41:27 2026, MaxMem=  8589934592 cpu:               3.5 elap:               0.2
 (Enter /root/g16/l1102.exe)
 Symmetrizing basis deriv contribution to polar:
 IMax=3 JMax=2 DiffMx= 0.00D+00
 Leave Link 1102 at Sat Jan 31 19:41:27 2026, MaxMem=  8589934592 cpu:               0.3 elap:               0.0
 (Enter /root/g16/l1110.exe)
 Forming Gx(P) for the SCF density, NAtomX=    26.
 Integral derivatives from FoFJK, PRISM(SPDF).
 Do as many integral derivatives as possible in FoFJK.
 G2DrvN: MDV=    8589932584.
 G2DrvN: will do    27 centers at a time, making    1 passes.
 Calling FoFCou, ICntrl=  3107 FMM=F I1Cent=   0 AccDes= 0.00D+00.
 FoFJK:  IHMeth= 1 ICntrl=    3107 DoSepK=F KAlg= 0 I1Cent=           0 FoldK=F
 IRaf=         0 NMat=       1 IRICut=       1 DoRegI=T DoRafI=F ISym2E= 0 IDoP0=0 IntGTp=1.
 FoFCou: FMM=F IPFlag=           0 FMFlag=      100000 FMFlg1=           0
         NFxFlg=           0 DoJE=F BraDBF=F KetDBF=F FulRan=T
         wScrn=  0.000000 ICntrl=      3107 IOpCl=  0 I1Cent=           0 NGrid=           0
         NMat0=    1 NMatS0=      1 NMatT0=    0 NMatD0=    1 NMtDS0=    0 NMtDT0=    0
 Symmetry not used in FoFCou.
 NEqPCM:  Using equilibrium solvation (IEInf=0, Eps=  20.4930, EpsInf=   1.8463)
 G2PCM: DoFxE=T DoFxN=T DoGrad=T DoDP/DQ/DG/TGxP=FFFF NFrqRd=   0 IEInf=0 SqF1=F DoCFld=F IF1Alg=4.
 GePol: Maximum number of non-zero 1st derivatives   =     224
 End of G2Drv F.D. properties file   721 does not exist.
 End of G2Drv F.D. properties file   722 does not exist.
 End of G2Drv F.D. properties file   788 does not exist.
 Leave Link 1110 at Sat Jan 31 19:41:52 2026, MaxMem=  8589934592 cpu:             400.3 elap:              24.9
 (Enter /root/g16/l1002.exe)
 Minotr:  Closed shell wavefunction.
          IDoAtm=11111111111111111111111111
 NEqPCM:  Using equilibrium solvation (IEInf=0, Eps=  20.4930, EpsInf=   1.8463)
          Direct CPHF calculation.
          Differentiating once with respect to nuclear coordinates.
          Requested convergence is 1.0D-08 RMS, and 1.0D-07 maximum.
          Secondary convergence is 1.0D-12 RMS, and 1.0D-12 maximum.
          NewPWx=T KeepS1=F KeepF1=F KeepIn=T MapXYZ=F SortEE=F KeepMc=T.
         7770 words used for storage of precomputed grid.
 Keep R1 ints in memory in canonical form, NReq=558668842.
 FoFCou: FMM=F IPFlag=           0 FMFlag=           0 FMFlg1=           0
         NFxFlg=           0 DoJE=F BraDBF=F KetDBF=F FulRan=T
         wScrn=  0.000000 ICntrl=       600 IOpCl=  0 I1Cent=           0 NGrid=           0
         NMat0=    1 NMatS0=  32896 NMatT0=    0 NMatD0=    1 NMtDS0=    0 NMtDT0=    0
 Symmetry not used in FoFCou.
 Two-electron integral symmetry not used.
          MDV=    8589934592 using IRadAn=       1.
          Solving linear equations simultaneously, MaxMat=       0.
          There are    81 degrees of freedom in the 1st order CPHF.  IDoFFX=6 NUNeed=     0.
     75 vectors produced by pass  0 Test12= 1.29D-14 1.23D-09 XBig12= 1.95D-01 1.23D-01.
 AX will form    75 AO Fock derivatives at one time.
     75 vectors produced by pass  1 Test12= 1.29D-14 1.23D-09 XBig12= 2.61D-02 6.01D-02.
     75 vectors produced by pass  2 Test12= 1.29D-14 1.23D-09 XBig12= 4.37D-04 3.20D-03.
     75 vectors produced by pass  3 Test12= 1.29D-14 1.23D-09 XBig12= 1.51D-06 1.70D-04.
     75 vectors produced by pass  4 Test12= 1.29D-14 1.23D-09 XBig12= 5.48D-09 9.33D-06.
     55 vectors produced by pass  5 Test12= 1.29D-14 1.23D-09 XBig12= 6.26D-12 3.46D-07.
     19 vectors produced by pass  6 Test12= 1.29D-14 1.23D-09 XBig12= 6.06D-15 7.95D-09.
 InvSVY:  IOpt=1 It=  1 EMax= 5.00D-16
 Solved reduced A of dimension   449 with    81 vectors.
 End of Minotr F.D. properties file   721 does not exist.
 End of Minotr F.D. properties file   722 does not exist.
 End of Minotr F.D. properties file   788 does not exist.
 Leave Link 1002 at Sat Jan 31 19:42:22 2026, MaxMem=  8589934592 cpu:             488.3 elap:              30.8
 (Enter /root/g16/l601.exe)
 Copying SCF densities to generalized density rwf, IOpCl= 0 IROHF=0.

 **********************************************************************

            Population analysis using the SCF density.

 **********************************************************************

 Orbital symmetries:
       Occupied  (A) (A) (A) (A) (A) (A) (A) (A) (A) (A) (A) (A)
                 (A) (A) (A) (A) (A) (A) (A) (A) (A) (A) (A) (A)
                 (A) (A) (A) (A) (A) (A) (A) (A) (A) (A) (A) (A)
                 (A) (A) (A) (A) (A) (A) (A) (A) (A) (A) (A) (A)
                 (A) (A) (A)
       Virtual   (A) (A) (A) (A) (A) (A) (A) (A) (A) (A) (A) (A)
                 (A) (A) (A) (A) (A) (A) (A) (A) (A) (A) (A) (A)
                 (A) (A) (A) (A) (A) (A) (A) (A) (A) (A) (A) (A)
                 (A) (A) (A) (A) (A) (A) (A) (A) (A) (A) (A) (A)
                 (A) (A) (A) (A) (A) (A) (A) (A) (A) (A) (A) (A)
                 (A) (A) (A) (A) (A) (A) (A) (A) (A) (A) (A) (A)
                 (A) (A) (A) (A) (A) (A) (A) (A) (A) (A) (A) (A)
                 (A) (A) (A) (A) (A) (A) (A) (A) (A) (A) (A) (A)
                 (A) (A) (A) (A) (A) (A) (A) (A) (A) (A) (A) (A)
                 (A) (A) (A) (A) (A) (A) (A) (A) (A) (A) (A) (A)
                 (A) (A) (A) (A) (A) (A) (A) (A) (A) (A) (A) (A)
                 (A) (A) (A) (A) (A) (A) (A) (A) (A) (A) (A) (A)
                 (A) (A) (A) (A) (A) (A) (A) (A) (A) (A) (A) (A)
                 (A) (A) (A) (A) (A) (A) (A) (A) (A) (A) (A) (A)
                 (A) (A) (A) (A) (A) (A) (A) (A) (A) (A) (A) (A)
                 (A) (A) (A) (A) (A) (A) (A) (A) (A) (A) (A) (A)
                 (A) (A) (A) (A) (A) (A) (A) (A) (A) (A) (A) (A)
                 (A)
 The electronic state is 1-A.
 Alpha  occ. eigenvalues --  -19.26650 -19.12705 -19.07688 -10.27524 -10.27443
 Alpha  occ. eigenvalues --  -10.26984 -10.25612 -10.22410 -10.20663 -10.20479
 Alpha  occ. eigenvalues --  -10.20021 -10.19657 -10.19355 -10.19099  -1.16936
 Alpha  occ. eigenvalues --   -1.03625  -0.98991  -0.85283  -0.80061  -0.79528
 Alpha  occ. eigenvalues --   -0.78270  -0.72395  -0.66993  -0.65647  -0.62369
 Alpha  occ. eigenvalues --   -0.58459  -0.56247  -0.54854  -0.52347  -0.51470
 Alpha  occ. eigenvalues --   -0.50131  -0.47768  -0.46554  -0.46141  -0.45457
 Alpha  occ. eigenvalues --   -0.44127  -0.43022  -0.41154  -0.40381  -0.39689
 Alpha  occ. eigenvalues --   -0.38613  -0.38153  -0.37450  -0.35870  -0.35669
 Alpha  occ. eigenvalues --   -0.34755  -0.30109  -0.28928  -0.25969  -0.23815
 Alpha  occ. eigenvalues --   -0.21940
 Alpha virt. eigenvalues --   -0.08757  -0.06488  -0.01357   0.05475   0.06156
 Alpha virt. eigenvalues --    0.07462   0.08697   0.09870   0.10475   0.11399
 Alpha virt. eigenvalues --    0.11863   0.12113   0.13198   0.13988   0.15112
 Alpha virt. eigenvalues --    0.15942   0.16778   0.17215   0.20695   0.21492
 Alpha virt. eigenvalues --    0.22905   0.24476   0.25563   0.26622   0.27509
 Alpha virt. eigenvalues --    0.28708   0.31135   0.32228   0.32719   0.34232
 Alpha virt. eigenvalues --    0.35721   0.39331   0.39741   0.42209   0.43264
 Alpha virt. eigenvalues --    0.43703   0.45273   0.45792   0.47480   0.48777
 Alpha virt. eigenvalues --    0.49481   0.51896   0.52241   0.53572   0.56432
 Alpha virt. eigenvalues --    0.58436   0.58560   0.59514   0.60211   0.60966
 Alpha virt. eigenvalues --    0.62381   0.62924   0.63923   0.64258   0.65001
 Alpha virt. eigenvalues --    0.65343   0.66279   0.67214   0.67456   0.68090
 Alpha virt. eigenvalues --    0.68578   0.68744   0.69946   0.70399   0.70846
 Alpha virt. eigenvalues --    0.71514   0.71970   0.72739   0.74048   0.75908
 Alpha virt. eigenvalues --    0.77265   0.78898   0.80508   0.81313   0.83849
 Alpha virt. eigenvalues --    0.85174   0.87240   0.94737   0.95994   0.98975
 Alpha virt. eigenvalues --    1.00231   1.00810   1.01598   1.05746   1.07029
 Alpha virt. eigenvalues --    1.07906   1.09368   1.11259   1.13433   1.14791
 Alpha virt. eigenvalues --    1.16578   1.18264   1.18791   1.22131   1.22615
 Alpha virt. eigenvalues --    1.25238   1.25750   1.26869   1.29071   1.30592
 Alpha virt. eigenvalues --    1.35168   1.35534   1.38366   1.41330   1.44157
 Alpha virt. eigenvalues --    1.45631   1.48294   1.50665   1.54631   1.56464
 Alpha virt. eigenvalues --    1.60322   1.60835   1.61430   1.64989   1.65993
 Alpha virt. eigenvalues --    1.66639   1.69587   1.70356   1.71688   1.73037
 Alpha virt. eigenvalues --    1.74537   1.75170   1.76034   1.78075   1.78716
 Alpha virt. eigenvalues --    1.79952   1.80084   1.80684   1.81582   1.84244
 Alpha virt. eigenvalues --    1.84353   1.85370   1.86283   1.87396   1.88856
 Alpha virt. eigenvalues --    1.90848   1.92881   1.93425   1.95135   1.95936
 Alpha virt. eigenvalues --    1.98434   1.98853   2.01036   2.01928   2.04630
 Alpha virt. eigenvalues --    2.06504   2.08638   2.09575   2.13947   2.17323
 Alpha virt. eigenvalues --    2.18958   2.19422   2.20997   2.22193   2.23386
 Alpha virt. eigenvalues --    2.24864   2.27499   2.27942   2.32528   2.36107
 Alpha virt. eigenvalues --    2.36840   2.38507   2.41853   2.42338   2.45110
 Alpha virt. eigenvalues --    2.46705   2.50137   2.51372   2.52245   2.53752
 Alpha virt. eigenvalues --    2.56852   2.58854   2.60029   2.61719   2.66878
 Alpha virt. eigenvalues --    2.69324   2.72085   2.73487   2.74178   2.75167
 Alpha virt. eigenvalues --    2.78485   2.79064   2.80420   2.81744   2.85631
 Alpha virt. eigenvalues --    2.90508   2.92477   2.96757   2.98407   3.01927
 Alpha virt. eigenvalues --    3.03394   3.04303   3.07360   3.09918   3.12057
 Alpha virt. eigenvalues --    3.16618   3.17605   3.19393   3.22876   3.38700
 Alpha virt. eigenvalues --    3.49688   3.58615   3.59646   3.64011   3.74714
          Condensed to atoms (all electrons):
               1          2          3          4          5          6
     1  O    7.806429   0.728307  -0.112262   0.008839  -0.000088  -0.000001
     2  C    0.728307   4.722982   0.161785   0.098452   0.005773   0.000275
     3  C   -0.112262   0.161785   5.653178   0.101641  -0.054290  -0.004283
     4  C    0.008839   0.098452   0.101641   5.425097   0.371603  -0.056923
     5  C   -0.000088   0.005773  -0.054290   0.371603   4.554316   0.440311
     6  C   -0.000001   0.000275  -0.004283  -0.056923   0.440311   4.594748
     7  C    0.000001   0.000591  -0.012393   0.000987  -0.068988   0.391543
     8  C    0.000003  -0.000796   0.008519   0.001098  -0.017808  -0.025333
     9  O   -0.000012  -0.000991   0.009665  -0.008115   0.000073  -0.007223
    10  C    0.000064  -0.001386  -0.007610   0.000319   0.004339   0.004914
    11  C   -0.000827  -0.000700  -0.002262  -0.002255  -0.000203  -0.000882
    12  C   -0.095532   0.305837  -0.134210  -0.008994  -0.000207   0.000076
    13  O    0.001428  -0.015327  -0.004282  -0.042381   0.002999   0.000083
    14  C    0.000658  -0.039663  -0.021029   0.375728  -0.058149  -0.011961
    15  H    0.007392  -0.041697   0.395280  -0.060186  -0.016890  -0.000057
    16  H    0.000001   0.000977  -0.018591   0.003112   0.342868  -0.009744
    17  H    0.000001  -0.000615   0.012792  -0.017469   0.358072  -0.008446
    18  H   -0.000000   0.000003   0.000197   0.010047  -0.021995   0.356361
    19  H   -0.000005  -0.000715   0.008901  -0.018965  -0.004433   0.360279
    20  H    0.000000  -0.000028   0.000672  -0.007372  -0.000144  -0.034187
    21  H    0.000000  -0.000015   0.000180   0.000084   0.008733   0.013412
    22  H    0.000000   0.000052   0.000435  -0.002700  -0.000126   0.000551
    23  H    0.001536   0.002520  -0.000211  -0.001061  -0.000014   0.000026
    24  H   -0.000018  -0.000413   0.000200   0.000002   0.000000   0.000010
    25  H    0.009098  -0.034665   0.015784  -0.000172   0.000085  -0.000000
    26  H    0.000009   0.001547   0.006966  -0.049578  -0.007242   0.000083
               7          8          9         10         11         12
     1  O    0.000001   0.000003  -0.000012   0.000064  -0.000827  -0.095532
     2  C    0.000591  -0.000796  -0.000991  -0.001386  -0.000700   0.305837
     3  C   -0.012393   0.008519   0.009665  -0.007610  -0.002262  -0.134210
     4  C    0.000987   0.001098  -0.008115   0.000319  -0.002255  -0.008994
     5  C   -0.068988  -0.017808   0.000073   0.004339  -0.000203  -0.000207
     6  C    0.391543  -0.025333  -0.007223   0.004914  -0.000882   0.000076
     7  C    4.922463   0.326142  -0.096567  -0.164822   0.020124  -0.000259
     8  C    0.326142   4.805816   0.712658   0.212631  -0.010296  -0.001662
     9  O   -0.096567   0.712658   7.698752  -0.123243   0.009331  -0.000214
    10  C   -0.164822   0.212631  -0.123243   5.213044   0.559594   0.002164
    11  C    0.020124  -0.010296   0.009331   0.559594   4.648390   0.023157
    12  C   -0.000259  -0.001662  -0.000214   0.002164   0.023157   5.224865
    13  O   -0.000103  -0.001158   0.000015  -0.004191  -0.004854   0.345270
    14  C    0.007928   0.002882   0.000026   0.010354  -0.003779  -0.110559
    15  H    0.000305   0.000353   0.000192  -0.000182  -0.000038   0.018819
    16  H    0.011308  -0.000020  -0.000062  -0.000119   0.000002  -0.000185
    17  H   -0.011646  -0.002120  -0.000041   0.000364  -0.000001   0.000262
    18  H   -0.004985   0.006735   0.000072  -0.000801   0.000025  -0.000000
    19  H   -0.046624  -0.013477   0.022442   0.005018  -0.000129   0.000051
    20  H    0.350955  -0.009257   0.004362  -0.000999   0.000392  -0.000010
    21  H    0.299586   0.011842   0.000670   0.009973  -0.001001  -0.000003
    22  H   -0.004182  -0.027915   0.003732   0.376382  -0.038014  -0.000615
    23  H    0.002590  -0.024319   0.018235  -0.019281   0.377000  -0.003353
    24  H   -0.000515   0.010844   0.000316  -0.009036   0.373110   0.002121
    25  H   -0.000001  -0.000050  -0.000003   0.000391  -0.000284   0.371069
    26  H   -0.000025  -0.000086  -0.000008  -0.000379   0.000249  -0.000112
              13         14         15         16         17         18
     1  O    0.001428   0.000658   0.007392   0.000001   0.000001  -0.000000
     2  C   -0.015327  -0.039663  -0.041697   0.000977  -0.000615   0.000003
     3  C   -0.004282  -0.021029   0.395280  -0.018591   0.012792   0.000197
     4  C   -0.042381   0.375728  -0.060186   0.003112  -0.017469   0.010047
     5  C    0.002999  -0.058149  -0.016890   0.342868   0.358072  -0.021995
     6  C    0.000083  -0.011961  -0.000057  -0.009744  -0.008446   0.356361
     7  C   -0.000103   0.007928   0.000305   0.011308  -0.011646  -0.004985
     8  C   -0.001158   0.002882   0.000353  -0.000020  -0.002120   0.006735
     9  O    0.000015   0.000026   0.000192  -0.000062  -0.000041   0.000072
    10  C   -0.004191   0.010354  -0.000182  -0.000119   0.000364  -0.000801
    11  C   -0.004854  -0.003779  -0.000038   0.000002  -0.000001   0.000025
    12  C    0.345270  -0.110559   0.018819  -0.000185   0.000262  -0.000000
    13  O    7.458823   0.397614  -0.000596  -0.000125   0.000159   0.000002
    14  C    0.397614   4.891994   0.011215   0.008064  -0.014713   0.000083
    15  H   -0.000596   0.011215   0.689157   0.003847   0.000255  -0.000221
    16  H   -0.000125   0.008064   0.003847   0.676572  -0.027975  -0.003283
    17  H    0.000159  -0.014713   0.000255  -0.027975   0.695383  -0.010500
    18  H    0.000002   0.000083  -0.000221  -0.003283  -0.010500   0.692862
    19  H    0.000005  -0.000420   0.001285  -0.010014   0.007940  -0.024140
    20  H   -0.000009   0.002540  -0.000046   0.000195   0.004494  -0.001724
    21  H   -0.000000  -0.000047  -0.000002  -0.000425   0.000183  -0.013377
    22  H   -0.000259   0.006239   0.000002   0.000005  -0.000078   0.000008
    23  H   -0.000081   0.000811  -0.000014  -0.000000   0.000001   0.000002
    24  H    0.000060  -0.000470   0.000003  -0.000000  -0.000000  -0.000000
    25  H   -0.025127   0.000967  -0.000511  -0.000002  -0.000002   0.000000
    26  H   -0.027086   0.421925  -0.000265   0.000032   0.005329  -0.000034
              19         20         21         22         23         24
     1  O   -0.000005   0.000000   0.000000   0.000000   0.001536  -0.000018
     2  C   -0.000715  -0.000028  -0.000015   0.000052   0.002520  -0.000413
     3  C    0.008901   0.000672   0.000180   0.000435  -0.000211   0.000200
     4  C   -0.018965  -0.007372   0.000084  -0.002700  -0.001061   0.000002
     5  C   -0.004433  -0.000144   0.008733  -0.000126  -0.000014   0.000000
     6  C    0.360279  -0.034187   0.013412   0.000551   0.000026   0.000010
     7  C   -0.046624   0.350955   0.299586  -0.004182   0.002590  -0.000515
     8  C   -0.013477  -0.009257   0.011842  -0.027915  -0.024319   0.010844
     9  O    0.022442   0.004362   0.000670   0.003732   0.018235   0.000316
    10  C    0.005018  -0.000999   0.009973   0.376382  -0.019281  -0.009036
    11  C   -0.000129   0.000392  -0.001001  -0.038014   0.377000   0.373110
    12  C    0.000051  -0.000010  -0.000003  -0.000615  -0.003353   0.002121
    13  O    0.000005  -0.000009  -0.000000  -0.000259  -0.000081   0.000060
    14  C   -0.000420   0.002540  -0.000047   0.006239   0.000811  -0.000470
    15  H    0.001285  -0.000046  -0.000002   0.000002  -0.000014   0.000003
    16  H   -0.010014   0.000195  -0.000425   0.000005  -0.000000  -0.000000
    17  H    0.007940   0.004494   0.000183  -0.000078   0.000001  -0.000000
    18  H   -0.024140  -0.001724  -0.013377   0.000008   0.000002  -0.000000
    19  H    0.687519   0.009496  -0.000460  -0.000228  -0.000133   0.000001
    20  H    0.009496   0.694790  -0.018800   0.000492  -0.000202  -0.000005
    21  H   -0.000460  -0.018800   0.654290   0.000230  -0.000035   0.000016
    22  H   -0.000228   0.000492   0.000230   0.680547   0.009858  -0.013289
    23  H   -0.000133  -0.000202  -0.000035   0.009858   0.646197  -0.046102
    24  H    0.000001  -0.000005   0.000016  -0.013289  -0.046102   0.643550
    25  H    0.000001   0.000001   0.000000  -0.000019   0.000063  -0.000022
    26  H   -0.000005   0.000525  -0.000016  -0.000196  -0.000012  -0.000015
              25         26
     1  O    0.009098   0.000009
     2  C   -0.034665   0.001547
     3  C    0.015784   0.006966
     4  C   -0.000172  -0.049578
     5  C    0.000085  -0.007242
     6  C   -0.000000   0.000083
     7  C   -0.000001  -0.000025
     8  C   -0.000050  -0.000086
     9  O   -0.000003  -0.000008
    10  C    0.000391  -0.000379
    11  C   -0.000284   0.000249
    12  C    0.371069  -0.000112
    13  O   -0.025127  -0.027086
    14  C    0.000967   0.421925
    15  H   -0.000511  -0.000265
    16  H   -0.000002   0.000032
    17  H   -0.000002   0.005329
    18  H    0.000000  -0.000034
    19  H    0.000001  -0.000005
    20  H    0.000001   0.000525
    21  H    0.000000  -0.000016
    22  H   -0.000019  -0.000196
    23  H    0.000063  -0.000012
    24  H   -0.000022  -0.000015
    25  H    0.628994  -0.000364
    26  H   -0.000364   0.605227
 Mulliken charges:
               1
     1  O   -0.355020
     2  C    0.107911
     3  C   -0.004771
     4  C   -0.120838
     5  C    0.161407
     6  C   -0.003633
     7  C    0.076584
     8  C    0.034773
     9  O   -0.244062
    10  C   -0.067502
    11  C    0.054152
    12  C    0.062226
    13  O   -0.080875
    14  C    0.121763
    15  H   -0.007399
    16  H    0.023563
    17  H    0.008374
    18  H    0.014663
    19  H    0.016811
    20  H    0.003869
    21  H    0.034983
    22  H    0.009089
    23  H    0.035982
    24  H    0.039650
    25  H    0.034771
    26  H    0.043531
 Sum of Mulliken charges =  -0.00000
 Mulliken charges with hydrogens summed into heavy atoms:
               1
     1  O   -0.355020
     2  C    0.107911
     3  C   -0.012170
     4  C   -0.120838
     5  C    0.193344
     6  C    0.027840
     7  C    0.115435
     8  C    0.034773
     9  O   -0.244062
    10  C   -0.058413
    11  C    0.129784
    12  C    0.096996
    13  O   -0.080875
    14  C    0.165295
 APT charges:
               1
     1  O    0.481774
     2  C   -0.753827
     3  C   -0.523313
     4  C   -0.222529
     5  C   -0.521240
     6  C   -0.744591
     7  C   -0.468425
     8  C   -0.565730
     9  O    0.090133
    10  C   -0.629079
    11  C   -0.311592
    12  C   -0.489484
    13  O    0.159118
    14  C   -0.448465
    15  H    0.338163
    16  H    0.461971
    17  H    0.380294
    18  H    0.647808
    19  H    0.125864
    20  H    0.191437
    21  H    0.608623
    22  H    0.362154
    23  H    0.168620
    24  H    0.549697
    25  H    0.630611
    26  H    0.482008
 Sum of APT charges =  -0.00000
 APT charges with hydrogens summed into heavy atoms:
               1
     1  O    0.481774
     2  C   -0.753827
     3  C   -0.185150
     4  C   -0.222529
     5  C    0.321025
     6  C    0.029080
     7  C    0.331635
     8  C   -0.565730
     9  O    0.090133
    10  C   -0.266925
    11  C    0.406726
    12  C    0.141127
    13  O    0.159118
    14  C    0.033543
 Electronic spatial extent (au):  <R**2>=           2325.1339
 Charge=             -0.0000 electrons
 Dipole moment (field-independent basis, Debye):
    X=             -4.6472    Y=             -1.1392    Z=              7.8638  Tot=              9.2051
 Quadrupole moment (field-independent basis, Debye-Ang):
   XX=            -86.3052   YY=            -77.5350   ZZ=            -88.1319
   XY=              6.8880   XZ=              8.1014   YZ=              3.2236
 Traceless Quadrupole moment (field-independent basis, Debye-Ang):
   XX=             -2.3145   YY=              6.4557   ZZ=             -4.1412
   XY=              6.8880   XZ=              8.1014   YZ=              3.2236
 Octapole moment (field-independent basis, Debye-Ang**2):
  XXX=            -40.0015  YYY=              0.8471  ZZZ=             28.4037  XYY=              4.3801
  XXY=             10.4600  XXZ=             39.5178  XZZ=            -16.1766  YZZ=             -5.5036
  YYZ=              5.5649  XYZ=             -6.1991
 Hexadecapole moment (field-independent basis, Debye-Ang**3):
 XXXX=          -1543.5766 YYYY=           -934.6030 ZZZZ=           -582.3629 XXXY=             27.4994
 XXXZ=            114.6246 YYYX=             27.3060 YYYZ=             14.0438 ZZZX=             21.7655
 ZZZY=             -0.0731 XXYY=           -396.4323 XXZZ=           -413.8645 YYZZ=           -248.5778
 XXYZ=             -7.5579 YYXZ=              0.6971 ZZXY=             16.9655
 N-N= 9.160470927250D+02 E-N=-3.348806863196D+03  KE= 6.454553585200D+02
  Exact polarizability:   0.000   0.000   0.000   0.000   0.000   0.000
 Approx polarizability: 245.899  51.688 158.920 -30.804   7.198 220.132
 No NMR shielding tensors so no spin-rotation constants.
 Leave Link  601 at Sat Jan 31 19:42:23 2026, MaxMem=  8589934592 cpu:               2.1 elap:               0.2
 (Enter /root/g16/l701.exe)
 ... and contract with generalized density number  0.
 Compute integral second derivatives.
 R6Disp: Adding Grimme-D3(BJ) dispersion energy 2nd derivatives to the Hessian.
   1 Symmetry operations used in ECPInt.
 ECPInt:  NShTT=    7260 NPrTT=   26324 LenC2=    7132 LenP2D=   19666.
 LDataN:  DoStor=T MaxTD1= 6 Len=  172
 D2PCM: PCM CHGder 2nd derivatives, FixD1E=F FixD2E=F DoIter=F DoCFld=F I1PDM=0
 GePol: Maximum number of non-zero 2nd derivatives   =     224
 Leave Link  701 at Sat Jan 31 19:42:25 2026, MaxMem=  8589934592 cpu:              40.6 elap:               2.5
 (Enter /root/g16/l702.exe)
 L702 exits ... SP integral derivatives will be done elsewhere.
 Leave Link  702 at Sat Jan 31 19:42:25 2026, MaxMem=  8589934592 cpu:               0.1 elap:               0.0
 (Enter /root/g16/l703.exe)
 Integral derivatives from FoFJK, PRISM(SPDF).
 Compute integral second derivatives, UseDBF=F ICtDFT=           0.
 Calling FoFJK, ICntrl=    100147 FMM=F ISym2X=0 I1Cent= 0 IOpClX= 0 NMat=1 NMatS=1 NMatT=0.
 FoFJK:  IHMeth= 1 ICntrl=  100147 DoSepK=F KAlg= 0 I1Cent=           0 FoldK=F
 IRaf=         0 NMat=       1 IRICut=       1 DoRegI=T DoRafI=F ISym2E= 0 IDoP0=0 IntGTp=1.
 FoFCou: FMM=F IPFlag=           0 FMFlag=      100000 FMFlg1=         800
         NFxFlg=           0 DoJE=F BraDBF=F KetDBF=F FulRan=T
         wScrn=  0.000000 ICntrl=    100147 IOpCl=  0 I1Cent=           0 NGrid=           0
         NMat0=    1 NMatS0=      1 NMatT0=    0 NMatD0=    1 NMtDS0=    0 NMtDT0=    0
 Symmetry not used in FoFCou.
 Leave Link  703 at Sat Jan 31 19:43:00 2026, MaxMem=  8589934592 cpu:             554.9 elap:              34.6
 (Enter /root/g16/l716.exe)
 Dipole        =-1.82833449D+00-4.48213998D-01 3.09384795D+00
 Polarizability= 0.00000000D+00 0.00000000D+00 0.00000000D+00
                 0.00000000D+00 0.00000000D+00 0.00000000D+00
 ***** Axes restored to original set *****
 -------------------------------------------------------------------
 Center     Atomic                   Forces (Hartrees/Bohr)
 Number     Number              X              Y              Z
 -------------------------------------------------------------------
      1        8           0.009227834    0.001647392   -0.008461113
      2        6          -0.008585281   -0.002603320    0.003938012
      3        6           0.009703571    0.003436902   -0.000790185
      4        6           0.002229423   -0.001826240    0.011105051
      5        6          -0.000580687    0.005876544   -0.005044008
      6        6           0.001428212    0.002505030    0.007890577
      7        6           0.002856071   -0.007186877   -0.009592721
      8        6          -0.005464285    0.004761464    0.009196722
      9        8           0.002574945   -0.002667759   -0.009663481
     10        6          -0.005414499   -0.001269963   -0.001897065
     11        6           0.005483449    0.001474677   -0.002562714
     12        6           0.008814871    0.002727947   -0.011733931
     13        8           0.000249960   -0.001857356    0.006118258
     14        6          -0.014250059   -0.004951118   -0.000394681
     15        1          -0.002804050   -0.004557335   -0.007890997
     16        1           0.000778104   -0.006816012   -0.000161934
     17        1          -0.002576807   -0.001883529    0.005796549
     18        1          -0.005960828   -0.003037316   -0.000870526
     19        1          -0.000142383   -0.000986079   -0.006455867
     20        1          -0.001654352    0.002266704    0.006469271
     21        1          -0.005654413    0.003989717   -0.001217781
     22        1          -0.002433878    0.001357382    0.008606265
     23        1           0.003066812   -0.001906225   -0.010048484
     24        1           0.005694564    0.006014429    0.007726087
     25        1           0.006011051    0.003869616    0.002934558
     26        1          -0.002597346    0.001621326    0.007004139
 -------------------------------------------------------------------
 Cartesian Forces:  Max     0.014250059 RMS     0.005543337
 FormGI is forming the generalized inverse of G from B-inverse, IUseBI=4.
 GSVD:  received Info=                   1 from GESDD.
 Leave Link  716 at Sat Jan 31 19:43:00 2026, MaxMem=  8589934592 cpu:               0.3 elap:               0.0
 (Enter /root/g16/l103.exe)

 GradGradGradGradGradGradGradGradGradGradGradGradGradGradGradGradGradGrad
 Berny optimization.
 Red2BG is reusing G-inverse.
 Internal  Forces:  Max     0.016051344 RMS     0.004744253
 Search for a local minimum.
 Step number   1 out of a maximum of  137
 All quantities printed in internal units (Hartrees-Bohrs-Radians)
 RMS Force = .47443D-02 SwitMx=.10000D-02 MixMth= 1
 Mixed Optimization -- RFO/linear search
 Second derivative matrix not updated -- analytic derivatives used.
 ITU=  0
     Eigenvalues ---    0.00193   0.00446   0.00731   0.00872   0.01248
     Eigenvalues ---    0.01756   0.01976   0.02009   0.02142   0.02290
     Eigenvalues ---    0.02477   0.02640   0.03172   0.03508   0.03906
     Eigenvalues ---    0.04019   0.04189   0.04334   0.04364   0.04492
     Eigenvalues ---    0.04812   0.05345   0.06335   0.06829   0.07359
     Eigenvalues ---    0.07689   0.10142   0.10165   0.10478   0.10657
     Eigenvalues ---    0.11804   0.12189   0.12592   0.12857   0.14696
     Eigenvalues ---    0.17307   0.18007   0.18874   0.21124   0.21293
     Eigenvalues ---    0.21528   0.22057   0.22419   0.23774   0.25448
     Eigenvalues ---    0.27968   0.30712   0.31863   0.32558   0.33321
     Eigenvalues ---    0.34430   0.35218   0.35458   0.35668   0.35734
     Eigenvalues ---    0.35895   0.36115   0.36714   0.38554   0.38730
     Eigenvalues ---    0.38929   0.39290   0.39345   0.39610   0.41344
     Eigenvalues ---    0.46965   0.50767   0.56882   0.65424   0.77784
     Eigenvalues ---    0.86427   1.07756
[...]
 6610026,0.00000370,-0.00026728,0.00059817,-0.00041975,-0.00096063,-0.0
 0072639,-0.00079757,-0.00040583,-0.00041061,0.00034532,-0.00005269,0.0
 0012988,-0.00000903,0.00001709,0.00014728,-0.00010369,-0.00001392,-0.0
 0001280,0.00019875,0.00005469,0.00012847,-0.00015261,-0.00039737,-0.00
 036783,-0.00057829,0.00023397,0.00002251,0.00097365,-0.00060100,0.0007
 0957,-0.00228851,0.00216225,-0.00283773,-0.00597566,0.00365374,0.02677
 926,0.06792063,0.00007110,0.00000672,-0.00008043,-0.00004514,-0.000004
 97,0.00000340,0.00006672,0.00002116,0.00013149,-0.00053933,-0.00008132
 ,-0.00052127,-0.00399158,-0.00046756,0.01741739,0.00601878,-0.04677172
 ,-0.02255209,0.00675279,-0.00664174,-0.03166543,0.00059944,0.00069190,
 -0.00412057,0.00028144,0.00101011,0.00197568,0.00011356,-0.00007193,0.
 00032913,-0.00002293,0.00002162,0.00021229,-0.00001115,0.00001258,-0.0
 0005472,0.00002811,0.00002203,0.00004980,0.00001243,0.00012376,-0.0000
 1600,0.00008041,0.00000491,-0.00003417,-0.00060181,0.00076612,0.000036
 27,0.00293913,-0.00094929,0.00226008,-0.00230963,0.00096905,0.01151433
 ,-0.00955099,0.05668596,0.00000172,-0.00002585,-0.00005461,-0.00003947
 ,0.00002122,0.00025944,-0.00011247,-0.00026545,-0.00011612,0.00114408,
 0.00049290,0.00038876,0.00329565,-0.00035682,-0.01619283,0.06283389,-0
 .02448356,-0.29257792,0.00030975,-0.00380022,-0.00690277,0.00215730,0.
 00091720,-0.00239033,0.00010805,0.00209898,0.00193319,-0.00006730,-0.0
 0013893,-0.00014769,0.00001059,0.00004612,-0.00001328,0.00000413,-0.00
 005307,-0.00016978,-0.00011172,-0.00002521,0.00017202,-0.00002441,-0.0
 0021159,-0.00018828,-0.00015907,0.00019046,0.00019175,-0.00002547,-0.0
 0003928,0.00107894,-0.00247615,0.00171405,-0.00070332,0.00053689,-0.00
 007159,-0.00185325,-0.06793588,0.02549341,0.31599263,0.00011286,-0.000
 01953,-0.00017698,-0.00002884,0.00009081,0.00022406,-0.00001059,0.0000
 0728,0.00009110,-0.00012378,-0.00006181,0.00005788,0.00006792,0.000085
 58,0.00072359,-0.00023193,0.00036586,0.00010412,-0.04969970,0.00093010
 ,0.01463225,0.00164201,0.00797966,0.02520547,-0.00569675,-0.00417762,0
 .00435836,-0.00031036,0.00029986,-0.00013294,0.00036382,0.00006923,-0.
 00021968,0.00011402,-0.00003881,-0.00019394,-0.00023363,-0.00013535,0.
 00006987,0.00016891,-0.00003319,0.00009185,0.00000432,-0.00002317,-0.0
 0001971,0.00000523,-0.00012369,-0.00007848,0.00000051,0.00014543,0.000
 12000,-0.00001292,0.00013853,-0.00013457,0.00055757,-0.00014031,0.0007
 0670,0.05091379,-0.00004413,0.00000727,0.00010549,-0.00002439,-0.00006
 672,-0.00013452,-0.00001079,-0.00003696,-0.00014427,0.00012158,-0.0000
 9487,0.00013854,-0.00008939,0.00213920,-0.00074708,0.00340516,-0.00458
 486,-0.03203981,0.00167123,-0.05367845,-0.03838922,0.00411628,0.002206
 16,0.01518064,-0.00557591,-0.00042392,0.00243471,-0.00075468,-0.000397
 70,0.00011492,0.00034736,0.00005559,-0.00018466,-0.00003375,0.00005198
 ,0.00015592,0.00009603,0.00009730,-0.00006488,0.00014604,0.00003831,-0
 .00007872,-0.00001686,0.00000999,0.00004916,-0.00041308,0.00025575,0.0
 0012528,0.00007760,-0.00039881,0.00058793,-0.00032938,0.00063466,0.000
 41407,-0.00002766,-0.00629197,-0.00115483,-0.00067978,0.05933103,0.000
 02655,-0.00000280,0.00001644,-0.00011255,-0.00000713,-0.00005484,0.000
 02239,-0.00001506,0.00001206,0.00014351,-0.00011620,0.00003212,-0.0005
 8842,0.00080876,0.00089656,0.00067276,-0.00095452,-0.00477404,0.020566
 34,-0.03514308,-0.30587326,-0.00439851,-0.00416689,-0.00950400,0.00392
 124,0.00186679,-0.00113382,-0.00086078,-0.00104237,-0.00003453,0.00007
 519,0.00014599,0.00050458,-0.00008845,0.00002402,0.00009868,0.00018804
 ,0.00013807,-0.00000623,-0.00000939,-0.00010098,-0.00018718,-0.0000201
 1,0.00000579,0.00002572,-0.00007785,0.00000465,0.00015652,0.00049260,-
 0.00045264,0.00019446,-0.00012431,-0.00037716,0.00018763,-0.00036508,-
 0.00093920,0.00067388,-0.02052173,0.04181925,0.32883511,-0.00009909,0.
 00000610,0.00015362,0.00009797,-0.00005761,-0.00021435,0.00002692,-0.0
 0002943,-0.00007044,0.00021383,-0.00016966,0.00004219,0.00107952,-0.00
 035236,0.00038255,0.00040866,-0.00125142,0.00049705,-0.21956855,0.0886
 2401,-0.09340894,-0.02338012,0.01007446,-0.01086804,0.00350987,-0.0020
 4529,0.00008242,-0.00093913,-0.00301976,0.00198699,0.00015727,-0.00046
 170,-0.00034408,0.00001461,0.00009509,0.00002737,-0.00005199,0.0000292
 5,0.00000223,0.00000216,0.00003953,0.00010576,0.00001059,-0.00000601,-
 0.00000167,0.00001144,-0.00005535,-0.00015087,-0.00007440,0.00005424,-
 0.00013735,0.00118898,-0.00022199,0.00038671,-0.00004296,0.00021283,-0
 .00004894,0.00304910,-0.00164678,0.00154646,0.23472720,0.00008621,0.00
 004252,-0.00004687,-0.00015075,-0.00012256,-0.00006514,0.00025502,0.00
 014081,0.00000692,-0.00122824,-0.00039817,-0.00029345,0.00002633,-0.00
 547885,-0.00297126,0.02522581,-0.01516939,0.01481197,0.08173190,-0.077
 10405,0.04437008,-0.01378840,0.00595466,-0.00574240,0.00107648,-0.0000
 8072,-0.00082430,0.00005272,-0.00323577,0.00081282,0.00032648,-0.00016
 519,-0.00010312,-0.00003459,0.00014175,-0.00005223,-0.00000157,0.00014
 844,0.00013078,-0.00005502,0.00005116,-0.00004982,-0.00001445,-0.00001
 463,0.00001529,0.00113135,-0.00110642,0.00092053,-0.00021643,0.0002288
 7,-0.00007675,0.00001732,0.00154683,0.00068468,0.00006310,0.00091002,-
 0.00039074,-0.00423654,0.00142630,-0.00160912,-0.09004442,0.09212570,-
 0.00006110,0.00000467,0.00012879,-0.00001810,-0.00006009,-0.00018149,-
 0.00007944,-0.00001246,-0.00002952,0.00007725,-0.00000686,-0.00012880,
 -0.00004299,-0.00071823,0.00043291,0.00658237,-0.00406279,0.00307452,-
 0.09157109,0.04640243,-0.09500241,0.01026114,-0.00681082,0.00438384,-0
 .00027247,0.00159123,-0.00096758,-0.00054934,0.00064330,-0.00009439,0.
 00002222,0.00001180,0.00014713,-0.00010759,0.00008259,0.00014162,0.000
 12787,0.00008090,-0.00004568,-0.00009205,-0.00002029,-0.00004898,0.000
 00234,0.00001359,0.00002034,-0.00011777,-0.00010025,0.00019878,0.00006
 323,-0.00027306,0.00023653,0.00002275,0.00036938,0.00033698,0.00015726
 ,0.00039180,0.00041967,-0.02461524,0.01167371,-0.01107998,0.10009503,-
 0.04936767,0.09777598,-0.00000368,0.00005512,-0.00007135,-0.00002369,-
 0.00004734,0.00009432,-0.00008818,0.00003584,0.00004493,-0.00000961,-0
 .00009417,-0.00014703,0.00001996,-0.00001795,0.00000711,0.00016268,0.0
 0025122,0.00011931,-0.00064158,0.00019751,-0.00020679,0.00847720,-0.00
 183551,-0.01450344,-0.00168159,-0.00341433,-0.00394825,-0.08481268,0.0
 0993672,0.09355527,-0.00650296,0.00442623,0.02774890,-0.00024008,0.000
 17244,0.00009670,0.00008473,-0.00032488,0.00007363,-0.00003506,0.00069
 528,0.00005016,-0.00000475,0.00000479,-0.00000147,-0.00001037,0.000000
 36,-0.00000824,-0.00000271,-0.00000111,-0.00000017,-0.00000084,0.00005
 313,0.00002518,0.00004705,0.00012668,-0.00007857,-0.00063478,-0.000600
 68,-0.00023851,-0.00008339,-0.00007021,0.00009487,0.08806748,0.0000045
 4,0.00000927,0.00010200,-0.00002365,-0.00007522,-0.00020253,0.00017642
 ,-0.00003120,-0.00013504,-0.00011472,0.00022940,0.00012340,-0.00004657
 ,0.00003924,-0.00003150,-0.00008270,0.00008330,0.00015403,0.00026057,-
 0.00034694,-0.00023814,0.00920394,0.00073364,-0.01045076,-0.00329076,-
 0.00044985,-0.00468768,0.00964395,-0.05252037,-0.05108132,-0.00575353,
 0.00681879,0.01106579,0.00028570,-0.00022440,-0.00004273,-0.00026185,0
 .00060089,-0.00012743,0.00018465,-0.00116344,-0.00004989,0.00000605,0.
 00000987,0.00002692,0.00003329,0.00001240,0.00001192,0.00000601,-0.000
 01318,0.00000274,0.00001450,-0.00002489,0.00000411,0.00003061,0.000138
 35,-0.00002589,-0.00066162,-0.00030225,0.00009286,0.00008687,0.0000126
 2,0.00022072,-0.00723057,0.04441162,-0.00009365,0.00002215,0.00013902,
 -0.00007144,-0.00001329,-0.00011151,-0.00012690,-0.00001082,0.00004472
 ,0.00012210,-0.00005071,-0.00011159,0.00002258,-0.00003390,-0.00002430
 ,0.00005394,-0.00002309,0.00030014,-0.00007566,0.00093323,-0.00031395,
 0.01031968,0.00233294,-0.01045607,-0.00242675,-0.00390085,-0.00310720,
 0.09494161,-0.05296904,-0.29353046,0.00037662,-0.00264444,-0.00246970,
 -0.00020333,0.00013174,0.00025471,0.00054128,0.00009689,-0.00011117,-0
 .00056367,0.00056865,-0.00011334,-0.00000521,0.00002040,0.00000654,0.0
 0000295,0.00000560,0.00000300,0.00000215,-0.00001204,0.00000333,0.0000
 1227,-0.00000611,0.00004195,0.00003142,0.00020981,0.00007674,-0.000241
 88,-0.00013422,0.00093170,-0.00004349,-0.00009492,0.00014196,-0.103149
 30,0.05564792,0.30641294,-0.00021622,-0.00063671,0.00039150,0.00042704
 ,0.00062216,-0.00095930,-0.00026565,-0.00008958,0.00003461,0.00002529,
 -0.00006010,-0.00021753,0.00000320,0.00000244,0.00002775,0.00001346,-0
 .00007036,-0.00006413,0.00043291,0.00003043,-0.00016249,-0.00156623,0.
 00339486,0.00117447,0.00189386,-0.00011931,-0.00145595,-0.00456565,0.0
 0549407,0.02846026,-0.08320795,0.01116410,0.08889395,-0.00021089,0.000
 67377,-0.00007058,0.00010700,-0.00012415,0.00013017,-0.00009236,0.0002
 7424,-0.00000121,0.00000563,-0.00002112,0.00000443,-0.00001663,0.00001
 019,-0.00000345,-0.00000864,0.00000266,-0.00000624,0.00000742,0.000041
 77,-0.00000737,-0.00002840,-0.00007542,-0.00000546,0.00018998,0.000110
 99,-0.00020072,0.00006854,0.00005603,-0.00012613,-0.00187526,-0.005654
 97,0.00163541,0.08112983,0.00002074,0.00099601,-0.00072991,-0.00046444
 ,-0.00105561,0.00170280,0.00042177,-0.00002383,-0.00019733,-0.00009928
 ,0.00027058,0.00053031,0.00002876,-0.00000820,0.00002777,0.00017202,-0
 .00005034,-0.00020146,-0.00022932,0.00065596,-0.00046622,0.00280841,-0
 .00595991,0.00344509,0.00002227,0.00066967,-0.00021011,-0.00402983,0.0
 0822355,0.00770700,0.01295292,-0.05468541,-0.05871364,0.00056684,-0.00
 154165,0.00056428,-0.00011431,0.00017455,-0.00044765,-0.00006323,-0.00
 061516,0.00019978,0.00000762,0.00002008,-0.00001086,0.00000219,0.00000
 574,-0.00000783,0.00001594,0.00000105,-0.00000915,0.00000190,0.0000533
 3,0.00001847,-0.00003138,-0.00007449,0.00002553,0.00008091,0.00013382,
 -0.00000551,-0.00013647,-0.00011033,0.00016454,-0.00548099,0.00690644,
 -0.00225393,-0.01155899,0.04410064,-0.00000430,-0.00038951,0.00004872,
 -0.00011922,0.00008083,-0.00029084,0.00025693,0.00001172,0.00003409,0.
 00013530,0.00002267,0.00004622,0.00001984,0.00001523,-0.00000259,0.000
 05165,-0.00009592,0.00002428,0.00023171,0.00000777,-0.00017453,-0.0019
 6014,0.00124389,-0.00345863,-0.00164107,-0.00107891,0.00127990,0.00409
 142,-0.00163262,-0.00302284,0.09285491,-0.05599613,-0.29787867,-0.0002
 1812,0.00006750,0.00000868,0.00044662,0.00006592,-0.00002867,-0.000359
 73,-0.00007683,-0.00011025,-0.00001804,0.00002350,-0.00001977,-0.00002
 993,-0.00000615,-0.00000450,-0.00002052,-0.00000479,0.00000867,-0.0000
 2422,0.00003813,-0.00000008,-0.00001676,-0.00000709,0.00002602,0.00013
 817,0.00007659,0.00007069,0.00006870,0.00003991,-0.00005341,0.00198357
 ,-0.00263869,0.00185121,-0.10275991,0.06122063,0.30959473,-0.00007493,
 0.00012110,-0.00002167,-0.00008836,-0.00022083,0.00012867,0.00008861,0
 .00002396,-0.00004742,-0.00005788,0.00002697,-0.00003703,0.00002132,0.
 00002792,-0.00002208,-0.00025102,0.00001707,0.00003450,-0.00075856,0.0
 0001648,-0.00136557,-0.00114590,-0.00444313,0.00666550,0.00120142,0.00
 104508,-0.00074624,-0.00968413,-0.01667891,-0.01913526,-0.14539820,-0.
 09441556,-0.09906258,-0.00006919,0.00069064,-0.00002737,-0.00002420,-0
 .00021298,0.00022909,-0.00000110,0.00013696,-0.00001808,-0.00000348,0.
 ,0.00000548,0.00002100,-0.00001689,0.00000345,0.00000537,0.00000828,0.
 00000743,0.00000918,-0.00014743,-0.00000028,0.00002104,-0.00000600,-0.
 00001032,0.00009260,0.00006048,0.00002055,-0.00034491,-0.00024263,0.00
 011004,-0.00026207,0.00315669,-0.00102157,0.00773324,0.00516130,0.0069
 3754,0.14893302,0.00000398,-0.00010826,-0.00003836,0.00012252,0.000358
 45,0.00013930,-0.00013049,-0.00001835,0.00011303,0.00008834,-0.0000467
 0,0.00001917,-0.00004783,-0.00007513,-0.00002473,-0.00033774,0.0001381
 2,0.00021176,0.00109070,-0.00162733,0.00039421,-0.00499964,0.00908071,
 -0.00290732,0.00031066,-0.00132153,0.00004878,-0.00607072,0.00254420,-
 0.00691146,-0.09603944,-0.12691373,-0.10223423,0.00020503,-0.00098293,
 -0.00042375,-0.00016246,0.00047479,-0.00003037,-0.00012088,-0.00027242
 ,0.00001987,-0.00000414,0.00000883,-0.00000078,0.00001660,-0.00000281,
 0.00001615,0.00000359,-0.00000341,0.00000661,0.00002408,-0.00010004,-0
 .00002614,0.00003596,0.00005116,-0.00002685,-0.00001819,-0.00002481,0.
 00001282,0.00029562,0.00031368,-0.00015385,0.00321434,-0.00481585,0.00
 215852,-0.00339941,0.00178533,-0.00097851,0.10589430,0.12142474,-0.000
 15558,-0.00012104,0.00025566,0.00018798,0.00007508,-0.00032202,-0.0001
 2134,-0.00005715,0.00003140,0.00003070,-0.00004865,-0.00030700,0.00001
 455,0.00003558,0.00002068,0.00016537,-0.00002422,-0.00010709,-0.000304
 53,0.00090569,-0.00001516,0.00381342,-0.00297006,-0.00012144,-0.001341
 04,0.00012968,0.00092902,0.00947300,0.00520486,0.00977109,-0.10281586,
 -0.10440687,-0.16822890,-0.00007789,0.00080172,-0.00015359,-0.00029141
 ,-0.00016777,0.00028613,0.00025397,0.00032817,0.00006479,0.00000048,0.
 00000065,0.00000551,-0.00000329,0.00000435,-0.00000505,0.,0.00000023,-
 0.00000307,-0.00001068,0.00004951,0.00001668,-0.00000989,-0.00001230,0
 .00002469,0.00000437,0.00000847,-0.00000688,-0.00009982,-0.00014475,0.
 00008342,-0.00151286,0.00214080,0.00005355,-0.01465908,-0.01232030,-0.
 00791122,0.10735992,0.11063347,0.16557322,0.00043587,0.00108763,-0.002
 06498,0.00139886,-0.00150958,0.00608359,0.00040816,-0.00214157,0.00038
 642,-0.00008531,-0.00106701,-0.00087526,-0.00019877,0.00035081,-0.0002
 6387,-0.00008681,-0.00010482,-0.00001223,0.00005122,-0.00002635,0.0000
 1602,-0.00010682,-0.00016002,-0.00024563,-0.00001977,0.00009139,0.0001
 0152,0.00038897,0.00025099,-0.00001131,-0.00043196,0.00002777,-0.00005
 271,-0.26218674,-0.13321883,-0.05279364,-0.02424236,-0.00599915,0.0047
 2660,0.00622910,-0.00040805,0.00230090,-0.00058916,0.00094342,-0.00033
 527,-0.00000284,0.00001199,0.00002200,0.00002093,0.00000221,0.00001142
 ,-0.00002958,0.00002413,-0.00003290,-0.00001260,0.00000554,0.00000447,
 -0.00000254,0.00000531,0.00001289,0.00000653,0.00002116,0.00000745,0.0
 0002115,-0.00000651,-0.00000361,0.00001347,-0.00005538,-0.00004119,0.0
 0003462,0.00002478,0.00009480,0.27923213,0.00215535,-0.00154523,0.0011
 9579,-0.01107920,0.00326221,0.00084581,-0.00229146,0.00267750,-0.00330
 856,-0.00027253,0.00074464,-0.00173440,0.00040357,-0.00076930,0.000305
 47,0.00013272,0.00011908,0.00007262,-0.00006232,0.00006843,-0.00001999
 ,0.00013344,0.00018825,0.00027865,0.00004482,-0.00009133,-0.00011951,-
 0.00060670,-0.00044553,0.00015183,0.00102873,-0.00030808,0.00004369,-0
 .13488908,-0.10658128,-0.03787179,0.00219009,-0.00542519,0.00552861,0.
 00060138,0.00741614,-0.00185680,0.00053335,-0.00216742,0.00076185,-0.0
 0007108,-0.00004984,-0.00007802,-0.00005409,0.00000708,0.00002740,0.00
 002199,-0.00001573,0.00004650,0.00003964,-0.00001441,0.00000420,-0.000
 00416,-0.00000181,-0.00001823,-0.00000447,-0.00001778,-0.00001011,-0.0
 0002308,0.00002088,-0.00000116,-0.00006378,0.00011021,-0.00000702,0.00
 001021,0.00009438,-0.00002612,0.14247787,0.10197475,0.00161940,0.00229
 759,0.00162227,-0.01896613,-0.00969160,0.00699217,-0.00015707,-0.00359
 357,-0.00498307,0.00100663,-0.00006992,-0.00001525,-0.00019993,0.00031
 003,0.00009467,-0.00002110,-0.00003563,-0.00001487,0.00004223,-0.00003
 312,0.00001025,-0.00008253,-0.00010535,-0.00019706,-0.00000082,0.00005
 516,0.00011450,0.00020504,0.00012848,0.00001514,-0.00012971,-0.0000473
 0,0.00000413,-0.06228315,-0.04264242,-0.06612600,0.03576342,0.01973736
 ,-0.00110513,0.00099911,-0.00252012,-0.00242426,-0.00157890,-0.0000450
 8,-0.00006363,0.00008119,0.00005805,0.00005012,-0.00007278,-0.00003227
 ,0.00001867,-0.00000609,0.00000761,-0.00000783,0.00000978,-0.00000513,
 0.00001983,-0.00000824,0.00000886,0.00001154,0.00000697,0.00001490,0.0
 0001033,0.00000211,0.00001793,-0.00000146,-0.00003182,-0.00002953,-0.0
 0002931,0.00001255,0.00000639,0.00005212,0.04290844,0.03606918,0.06574
 088,0.00007046,0.00050011,-0.00012991,-0.00001219,-0.00050972,0.000909
 64,-0.00008759,-0.00287076,-0.00178830,0.00817410,-0.00044369,-0.00817
 285,0.00064280,0.00146821,-0.00131595,-0.00011503,-0.00023574,-0.00003
 739,0.00003908,-0.00003086,0.00003437,0.00003293,0.00001393,-0.0000524
 0,0.00000784,-0.00002776,0.00003825,-0.00001674,0.00002116,-0.00006396
 ,-0.00005888,0.00000932,0.00003040,0.00164847,-0.00327121,-0.00449956,
 -0.03152160,-0.00183720,0.03011382,-0.10916994,0.00156906,0.12188493,0
 .00047811,0.00003189,-0.00055347,-0.00000269,-0.00001326,0.00019377,-0
 .00002840,-0.00019229,0.00004510,-0.00003863,0.00001942,-0.00005638,-0
 .00003032,-0.00001469,-0.00001798,-0.00029681,0.00008922,-0.00008213,0
 .00001135,0.00001333,0.00002951,0.00003306,0.00003366,-0.00003556,0.00
 000298,0.00000002,-0.00000320,0.00000252,0.00000044,0.00000471,-0.0002
 4576,-0.00035119,0.00088138,0.13048087,0.00027620,-0.00063954,0.000660
 85,-0.00075994,0.00108803,-0.00045163,-0.00349487,0.00172419,-0.002388
 16,0.00646503,0.00264243,-0.01138508,0.00226855,-0.00163798,0.00012855
 ,0.00009940,0.00031069,0.00025117,-0.00008765,0.00009466,-0.00000020,-
 0.00001234,-0.00009368,0.00011583,-0.00001732,0.00003013,-0.00005458,-
 0.00007669,-0.00017463,0.00033666,0.00029793,-0.00004695,-0.00010422,-
 0.00341113,0.00420072,-0.00224440,-0.01118081,-0.00698845,0.01811246,0
 .00426224,-0.03324109,-0.02978265,0.00053510,-0.00011381,-0.00039642,-
 0.00028776,-0.00001885,-0.00011767,-0.00047249,-0.00020001,0.00042254,
 0.00001913,-0.00001992,0.00004515,0.00007704,-0.00006604,0.00006579,0.
 00016052,-0.00008421,0.00003190,-0.00001526,-0.00003950,-0.00005417,-0
 .00002884,-0.00005911,0.00002068,-0.00000380,0.00001795,-0.00000210,-0
 .00001309,0.00003891,-0.00001899,-0.00062772,0.00074938,0.00013948,0.0
 0602858,0.03252669,0.00004896,0.00042428,0.00013044,-0.00056119,-0.000
 88826,-0.00019523,-0.00167927,-0.00295287,-0.00174034,0.01184015,0.001
 78040,-0.00913813,0.00089996,0.00138614,-0.00005032,-0.00024568,-0.000
 16330,0.00004092,0.00014347,-0.00014920,-0.00014924,0.00009210,-0.0000
 2210,-0.00027165,-0.00007978,0.00005628,0.00017236,0.00011544,-0.00010
 958,-0.00008256,-0.00009231,0.00003747,0.00009462,-0.00196278,-0.00232
 140,0.00294264,-0.00238866,0.00389660,0.00686418,0.13143981,-0.0274733
 4,-0.29207845,0.00067414,0.00007488,-0.00055553,-0.00002381,-0.0000076
 7,0.00027105,-0.00070258,-0.00027543,0.00037420,-0.00003713,0.00005700
 ,-0.00005190,0.00005091,-0.00001648,0.00005261,-0.00018440,0.00017865,
 0.00000707,0.00000394,0.00002465,0.00009943,-0.00003007,0.00010044,0.0
 0008923,-0.00002117,-0.00000278,-0.00000789,0.00000076,-0.00002371,0.0
 0001348,0.00005606,-0.00027987,0.00021126,-0.13735685,0.02666922,0.292
 95777\\0.00000207,-0.00000259,0.00000417,-0.00000086,-0.00000155,0.000
 00144,0.00000014,-0.00000050,0.00000118,-0.00000230,0.00000029,0.00000
 036,-0.00000212,0.00000064,-0.00000133,0.00000052,0.00000143,-0.000003
 44,0.00000035,0.00000260,-0.00000247,0.00000159,0.00000109,-0.00000063
 ,0.00000388,0.00000106,0.00000048,0.00000214,0.00000060,-0.00000080,0.
 00000143,0.00000006,0.00000166,-0.00000072,-0.00000189,0.00000223,-0.0
 0000131,-0.00000225,0.00000231,-0.00000255,-0.00000270,0.00000080,0.00
 000063,-0.00000031,0.00000066,-0.00000245,0.00000082,-0.00000201,-0.00
 000271,0.00000070,-0.00000242,-0.00000069,0.00000263,-0.00000462,0.000
 00114,0.00000188,-0.00000236,-0.00000186,0.00000204,-0.00000374,0.0000
 0116,0.00000256,-0.00000312,0.00000038,0.00000017,0.00000092,0.0000031
 7,-0.00000107,0.00000241,0.00000230,-0.00000177,0.00000333,-0.00000058
 ,-0.00000337,0.00000477,-0.00000276,-0.00000058,0.00000020\\\@


 JUST WHEN YOU THINK YOU'VE GOT THE WORLD ON A STRING,
 YOU FIND OUT IT'S YOUR LEASH.
 Job cpu time:       0 days  0 hours 28 minutes  2.6 seconds.
 Elapsed time:       0 days  0 hours  1 minutes 45.7 seconds.
 File lengths (MBytes):  RWF=    264 Int=      0 D2E=      0 Chk=     19 Scr=      1
 Normal termination of Gaussian 16 at Sat Jan 31 19:46:15 2026.
