 Entering Gaussian System, Link 0=g16
 Initial command:
 /root//g16/l1.exe "/root/g16/scratch/Gau-301634.inp" -scrdir="/root/g16/scratch/"
 Entering Link 1 = /root//g16/l1.exe PID=    301636.
  
 Copyright (c) 1988,1990,1992,1993,1995,1998,2003,2009,2016,
            Gaussian, Inc.  All Rights Reserved.
  
 This is part of the Gaussian(R) 16 program.  It is based on
 the Gaussian(R) 09 system (copyright 2009, Gaussian, Inc.),
 the Gaussian(R) 03 system (copyright 2003, Gaussian, Inc.),
 the Gaussian(R) 98 system (copyright 1998, Gaussian, Inc.),
 the Gaussian(R) 94 system (copyright 1995, Gaussian, Inc.),
 the Gaussian 92(TM) system (copyright 1992, Gaussian, Inc.),
 the Gaussian 90(TM) system (copyright 1990, Gaussian, Inc.),
 the Gaussian 88(TM) system (copyright 1988, Gaussian, Inc.),
 the Gaussian 86(TM) system (copyright 1986, Carnegie Mellon
 University), and the Gaussian 82(TM) system (copyright 1983,
 Carnegie Mellon University). Gaussian is a federally registered
 trademark of Gaussian, Inc.
  
 This software contains proprietary and confidential information,
 including trade secrets, belonging to Gaussian, Inc.
  
 This software is provided under written license and may be
 used, copied, transmitted, or stored only in accord with that
 written license.
  
 The following legend is applicable only to US Government
 contracts under FAR:
  
                    RESTRICTED RIGHTS LEGEND
  
 Use, reproduction and disclosure by the US Government is
 subject to restrictions as set forth in subparagraphs (a)
 and (c) of the Commercial Computer Software - Restricted
 Rights clause in FAR 52.227-19.
  
 Gaussian, Inc.
 340 Quinnipiac St., Bldg. 40, Wallingford CT 06492
  
  
 ---------------------------------------------------------------
 Warning -- This program may not be used in any manner that
 competes with the business of Gaussian, Inc. or will provide
 assistance to any competitor of Gaussian, Inc.  The licensee
 of this program is prohibited from giving any competitor of
 Gaussian, Inc. access to this program.  By using this program,
 the user acknowledges that Gaussian, Inc. is engaged in the
 business of creating and licensing software in the field of
 computational chemistry and represents and warrants to the
 licensee that it is not a competitor of Gaussian, Inc. and that
 it will not use this program in any manner prohibited above.
 ---------------------------------------------------------------
  

 Cite this work as:
 Gaussian 16, Revision A.03,
 M. J. Frisch, G. W. Trucks, H. B. Schlegel, G. E. Scuseria, 
 M. A. Robb, J. R. Cheeseman, G. Scalmani, V. Barone, 
 G. A. Petersson, H. Nakatsuji, X. Li, M. Caricato, A. V. Marenich, 
 J. Bloino, B. G. Janesko, R. Gomperts, B. Mennucci, H. P. Hratchian, 
 J. V. Ortiz, A. F. Izmaylov, J. L. Sonnenberg, D. Williams-Young, 
 F. Ding, F. Lipparini, F. Egidi, J. Goings, B. Peng, A. Petrone, 
 T. Henderson, D. Ranasinghe, V. G. Zakrzewski, J. Gao, N. Rega, 
 G. Zheng, W. Liang, M. Hada, M. Ehara, K. Toyota, R. Fukuda, 
 J. Hasegawa, M. Ishida, T. Nakajima, Y. Honda, O. Kitao, H. Nakai, 
 T. Vreven, K. Throssell, J. A. Montgomery, Jr., J. E. Peralta, 
 F. Ogliaro, M. J. Bearpark, J. J. Heyd, E. N. Brothers, K. N. Kudin, 
 V. N. Staroverov, T. A. Keith, R. Kobayashi, J. Normand, 
 K. Raghavachari, A. P. Rendell, J. C. Burant, S. S. Iyengar, 
 J. Tomasi, M. Cossi, J. M. Millam, M. Klene, C. Adamo, R. Cammi, 
 J. W. Ochterski, R. L. Martin, K. Morokuma, O. Farkas, 
 J. B. Foresman, and D. J. Fox, Gaussian, Inc., Wallingford CT, 2016.
 
 ******************************************
 Gaussian 16:  ES64L-G16RevA.03 25-Dec-2016
                14-Jan-2026 
 ******************************************
 %chk=conf_002.chk
 %nprocshared=16
 Will use up to   16 processors via shared memory.
 %mem=32GB
 ---------------------------------------------------------
 #p B3LYP/def2SVP em=GD3BJ Opt SCF=(XQC,MaxCycle=256) Freq
 ---------------------------------------------------------
 1/18=20,19=15,26=3,38=1/1,3;
 2/9=110,12=2,17=6,18=5,40=1/2;
 3/5=43,7=101,11=2,25=1,30=1,71=1,74=-5,124=41/1,2,3;
 4//1;
 5/5=2,7=256,8=3,13=1,38=5/2,8;
 6/7=2,8=2,9=2,10=2,28=1/1;
 7//1,2,3,16;
 1/18=20,19=15,26=3/3(2);
 2/9=110/2;
 99//99;
 2/9=110/2;
 3/5=43,7=101,11=2,25=1,30=1,71=1,74=-5,124=41/1,2,3;
 4/5=5,16=3,69=1/1;
 5/5=2,7=256,8=3,13=1,38=5/2,8;
 7//1,2,3,16;
 1/18=20,19=15,26=3/3(-5);
 2/9=110/2;
 6/7=2,8=2,9=2,10=2,19=2,28=1/1;
 99/9=1/99;
 Leave Link    1 at Wed Jan 14 09:42:35 2026, MaxMem=  4294967296 cpu:               0.3 elap:               0.0
 (Enter /root//g16/l101.exe)
 ------------
 -41.88051372
 ------------
 Symbolic Z-matrix:
 Charge =  0 Multiplicity = 1
 O                     3.02733   0.85479   1.3012 
 C                     2.08003   0.70646   0.55471 
 C                     0.89037   1.55255   0.54806 
 C                    -0.13439   1.28251  -0.27429 
 C                    -1.44883   1.98159  -0.23095 
 C                    -2.57694   0.94872  -0.09564 
 C                    -2.2253   -0.14701   0.92172 
 C                    -1.56978  -1.36197   0.30709 
 O                    -2.00029  -2.47314   0.51721 
 C                    -0.34078  -1.20898  -0.57097 
 C                     0.9621   -1.48435   0.21297 
 C                     1.95809  -0.46705  -0.41422 
 O                     1.35171  -0.03097  -1.61235 
 C                    -0.00235   0.14511  -1.24807 
 H                     0.864     2.3759    1.24728 
 H                    -1.46814   2.67218   0.61305 
 H                    -1.59166   2.55904  -1.1474 
 H                    -2.79402   0.4889   -1.06075 
 H                    -3.48049   1.46221   0.23261 
 H                    -3.12642  -0.50345   1.42482 
 H                    -1.55495   0.25769   1.68395 
 H                    -0.42387  -1.9592   -1.36414 
 H                     0.84255  -1.30253   1.28195 
 H                     1.3022   -2.50769   0.07584 
 H                     2.93453  -0.89365  -0.64574 
 H                    -0.57113   0.3232   -2.1616 
 
 ITRead=  0  0  0  0  0  0  0  0  0  0  0  0  0  0  0  0  0  0  0  0
 ITRead=  0  0  0  0  0  0
 MicOpt= -1 -1 -1 -1 -1 -1 -1 -1 -1 -1 -1 -1 -1 -1 -1 -1 -1 -1 -1 -1
 MicOpt= -1 -1 -1 -1 -1 -1
 NAtoms=     26 NQM=       26 NQMF=       0 NMMI=      0 NMMIF=      0
                NMic=       0 NMicF=      0.
                    Isotopes and Nuclear Properties:
 (Nuclear quadrupole moments (NQMom) in fm**2, nuclear magnetic moments (NMagM)
  in nuclear magnetons)

  Atom         1           2           3           4           5           6           7           8           9          10
 IAtWgt=          16          12          12          12          12          12          12          12          16          12
 AtmWgt=  15.9949146  12.0000000  12.0000000  12.0000000  12.0000000  12.0000000  12.0000000  12.0000000  15.9949146  12.0000000
 NucSpn=           0           0           0           0           0           0           0           0           0           0
 AtZEff=  -0.0000000  -0.0000000  -0.0000000  -0.0000000  -0.0000000  -0.0000000  -0.0000000  -0.0000000  -0.0000000  -0.0000000
 NQMom=    0.0000000   0.0000000   0.0000000   0.0000000   0.0000000   0.0000000   0.0000000   0.0000000   0.0000000   0.0000000
 NMagM=    0.0000000   0.0000000   0.0000000   0.0000000   0.0000000   0.0000000   0.0000000   0.0000000   0.0000000   0.0000000
 AtZNuc=   8.0000000   6.0000000   6.0000000   6.0000000   6.0000000   6.0000000   6.0000000   6.0000000   8.0000000   6.0000000

  Atom        11          12          13          14          15          16          17          18          19          20
 IAtWgt=          12          12          16          12           1           1           1           1           1           1
 AtmWgt=  12.0000000  12.0000000  15.9949146  12.0000000   1.0078250   1.0078250   1.0078250   1.0078250   1.0078250   1.0078250
 NucSpn=           0           0           0           0           1           1           1           1           1           1
 AtZEff=  -0.0000000  -0.0000000  -0.0000000  -0.0000000  -0.0000000  -0.0000000  -0.0000000  -0.0000000  -0.0000000  -0.0000000
 NQMom=    0.0000000   0.0000000   0.0000000   0.0000000   0.0000000   0.0000000   0.0000000   0.0000000   0.0000000   0.0000000
 NMagM=    0.0000000   0.0000000   0.0000000   0.0000000   2.7928460   2.7928460   2.7928460   2.7928460   2.7928460   2.7928460
 AtZNuc=   6.0000000   6.0000000   8.0000000   6.0000000   1.0000000   1.0000000   1.0000000   1.0000000   1.0000000   1.0000000

  Atom        21          22          23          24          25          26
 IAtWgt=           1           1           1           1           1           1
 AtmWgt=   1.0078250   1.0078250   1.0078250   1.0078250   1.0078250   1.0078250
 NucSpn=           1           1           1           1           1           1
 AtZEff=  -0.0000000  -0.0000000  -0.0000000  -0.0000000  -0.0000000  -0.0000000
 NQMom=    0.0000000   0.0000000   0.0000000   0.0000000   0.0000000   0.0000000
 NMagM=    2.7928460   2.7928460   2.7928460   2.7928460   2.7928460   2.7928460
 AtZNuc=   1.0000000   1.0000000   1.0000000   1.0000000   1.0000000   1.0000000
 Leave Link  101 at Wed Jan 14 09:42:35 2026, MaxMem=  4294967296 cpu:               1.8 elap:               0.1
 (Enter /root//g16/l103.exe)

 GradGradGradGradGradGradGradGradGradGradGradGradGradGradGradGradGradGrad
 Berny optimization.
 Initialization pass.
                           ----------------------------
                           !    Initial Parameters    !
                           ! (Angstroms and Degrees)  !
 --------------------------                            --------------------------
 ! Name  Definition              Value          Derivative Info.                !
 --------------------------------------------------------------------------------
 ! R1    R(1,2)                  1.2152         estimate D2E/DX2                !
 ! R2    R(2,3)                  1.4599         estimate D2E/DX2                !
 ! R3    R(2,12)                 1.5267         estimate D2E/DX2                !
 ! R4    R(3,4)                  1.3414         estimate D2E/DX2                !
 ! R5    R(3,15)                 1.0805         estimate D2E/DX2                !
 ! R6    R(4,5)                  1.4894         estimate D2E/DX2                !
 ! R7    R(4,14)                 1.5031         estimate D2E/DX2                !
 ! R8    R(5,6)                  1.5355         estimate D2E/DX2                !
 ! R9    R(5,16)                 1.0907         estimate D2E/DX2                !
 ! R10   R(5,17)                 1.0926         estimate D2E/DX2                !
 ! R11   R(6,7)                  1.536          estimate D2E/DX2                !
 ! R12   R(6,18)                 1.0909         estimate D2E/DX2                !
 ! R13   R(6,19)                 1.0899         estimate D2E/DX2                !
 ! R14   R(7,8)                  1.5112         estimate D2E/DX2                !
 ! R15   R(7,20)                 1.0919         estimate D2E/DX2                !
 ! R16   R(7,21)                 1.0928         estimate D2E/DX2                !
 ! R17   R(8,9)                  1.21           estimate D2E/DX2                !
 ! R18   R(8,10)                 1.5182         estimate D2E/DX2                !
 ! R19   R(10,11)                1.5453         estimate D2E/DX2                !
 ! R20   R(10,14)                1.5513         estimate D2E/DX2                !
 ! R21   R(10,22)                1.0949         estimate D2E/DX2                !
 ! R22   R(11,12)                1.5557         estimate D2E/DX2                !
 ! R23   R(11,23)                1.0909         estimate D2E/DX2                !
 ! R24   R(11,24)                1.0871         estimate D2E/DX2                !
 ! R25   R(12,13)                1.4119         estimate D2E/DX2                !
 ! R26   R(12,25)                1.0904         estimate D2E/DX2                !
 ! R27   R(13,14)                1.4132         estimate D2E/DX2                !
 ! R28   R(14,26)                1.0908         estimate D2E/DX2                !
 ! A1    A(1,2,3)              124.5644         estimate D2E/DX2                !
 ! A2    A(1,2,12)             123.0907         estimate D2E/DX2                !
 ! A3    A(3,2,12)             112.1795         estimate D2E/DX2                !
 ! A4    A(2,3,4)              120.5759         estimate D2E/DX2                !
 ! A5    A(2,3,15)             117.2952         estimate D2E/DX2                !
 ! A6    A(4,3,15)             122.1048         estimate D2E/DX2                !
 ! A7    A(3,4,5)              124.1865         estimate D2E/DX2                !
 ! A8    A(3,4,14)             118.8414         estimate D2E/DX2                !
 ! A9    A(5,4,14)             116.8423         estimate D2E/DX2                !
 ! A10   A(4,5,6)              109.5863         estimate D2E/DX2                !
 ! A11   A(4,5,16)             109.5922         estimate D2E/DX2                !
 ! A12   A(4,5,17)             109.818          estimate D2E/DX2                !
 ! A13   A(6,5,16)             110.1639         estimate D2E/DX2                !
 ! A14   A(6,5,17)             109.4744         estimate D2E/DX2                !
 ! A15   A(16,5,17)            108.1866         estimate D2E/DX2                !
 ! A16   A(5,6,7)              111.7169         estimate D2E/DX2                !
 ! A17   A(5,6,18)             110.5962         estimate D2E/DX2                !
 ! A18   A(5,6,19)             108.5847         estimate D2E/DX2                !
 ! A19   A(7,6,18)             109.3201         estimate D2E/DX2                !
 ! A20   A(7,6,19)             109.0507         estimate D2E/DX2                !
 ! A21   A(18,6,19)            107.4628         estimate D2E/DX2                !
 ! A22   A(6,7,8)              113.7942         estimate D2E/DX2                !
 ! A23   A(6,7,20)             110.434          estimate D2E/DX2                !
 ! A24   A(6,7,21)             109.7702         estimate D2E/DX2                !
 ! A25   A(8,7,20)             106.4364         estimate D2E/DX2                !
 ! A26   A(8,7,21)             108.3816         estimate D2E/DX2                !
 ! A27   A(20,7,21)            107.805          estimate D2E/DX2                !
 ! A28   A(7,8,9)              120.8865         estimate D2E/DX2                !
 ! A29   A(7,8,10)             120.3569         estimate D2E/DX2                !
 ! A30   A(9,8,10)             118.7496         estimate D2E/DX2                !
 ! A31   A(8,10,11)            111.7876         estimate D2E/DX2                !
 ! A32   A(8,10,14)            121.1317         estimate D2E/DX2                !
 ! A33   A(8,10,22)            106.7682         estimate D2E/DX2                !
 ! A34   A(11,10,14)           101.1299         estimate D2E/DX2                !
 ! A35   A(11,10,22)           108.0222         estimate D2E/DX2                !
 ! A36   A(14,10,22)           107.3642         estimate D2E/DX2                !
 ! A37   A(10,11,12)           102.6347         estimate D2E/DX2                !
 ! A38   A(10,11,23)           112.0258         estimate D2E/DX2                !
 ! A39   A(10,11,24)           111.5641         estimate D2E/DX2                !
 ! A40   A(12,11,23)           110.8685         estimate D2E/DX2                !
 ! A41   A(12,11,24)           111.372          estimate D2E/DX2                !
 ! A42   A(23,11,24)           108.3487         estimate D2E/DX2                !
 ! A43   A(2,12,11)            107.3317         estimate D2E/DX2                !
 ! A44   A(2,12,13)            109.601          estimate D2E/DX2                !
 ! A45   A(2,12,25)            111.3432         estimate D2E/DX2                !
 ! A46   A(11,12,13)           105.6122         estimate D2E/DX2                !
 ! A47   A(11,12,25)           113.7694         estimate D2E/DX2                !
 ! A48   A(13,12,25)           108.9807         estimate D2E/DX2                !
 ! A49   A(12,13,14)           103.3708         estimate D2E/DX2                !
 ! A50   A(4,14,10)            111.0123         estimate D2E/DX2                !
 ! A51   A(4,14,13)            110.2083         estimate D2E/DX2                !
 ! A52   A(4,14,26)            111.9143         estimate D2E/DX2                !
 ! A53   A(10,14,13)           102.2854         estimate D2E/DX2                !
 ! A54   A(10,14,26)           113.223          estimate D2E/DX2                !
 ! A55   A(13,14,26)           107.703          estimate D2E/DX2                !
 ! D1    D(1,2,3,4)           -177.2095         estimate D2E/DX2                !
 ! D2    D(1,2,3,15)             1.042          estimate D2E/DX2                !
 ! D3    D(12,2,3,4)            -1.7732         estimate D2E/DX2                !
 ! D4    D(12,2,3,15)          176.4783         estimate D2E/DX2                !
 ! D5    D(1,2,12,11)          102.1698         estimate D2E/DX2                !
 ! D6    D(1,2,12,13)         -143.6004         estimate D2E/DX2                !
 ! D7    D(1,2,12,25)          -22.9481         estimate D2E/DX2                !
 ! D8    D(3,2,12,11)          -73.3447         estimate D2E/DX2                !
 ! D9    D(3,2,12,13)           40.8851         estimate D2E/DX2                !
 ! D10   D(3,2,12,25)          161.5374         estimate D2E/DX2                !
 ! D11   D(2,3,4,5)            171.9949         estimate D2E/DX2                !
 ! D12   D(2,3,4,14)            -3.726          estimate D2E/DX2                !
 ! D13   D(15,3,4,5)            -6.1707         estimate D2E/DX2                !
 ! D14   D(15,3,4,14)          178.1084         estimate D2E/DX2                !
 ! D15   D(3,4,5,6)           -125.6567         estimate D2E/DX2                !
 ! D16   D(3,4,5,16)            -4.6587         estimate D2E/DX2                !
 ! D17   D(3,4,5,17)           114.0541         estimate D2E/DX2                !
 ! D18   D(14,4,5,6)            50.1425         estimate D2E/DX2                !
 ! D19   D(14,4,5,16)          171.1405         estimate D2E/DX2                !
 ! D20   D(14,4,5,17)          -70.1467         estimate D2E/DX2                !
 ! D21   D(3,4,14,10)           83.105          estimate D2E/DX2                !
 ! D22   D(3,4,14,13)          -29.4941         estimate D2E/DX2                !
 ! D23   D(3,4,14,26)         -149.3186         estimate D2E/DX2                !
 ! D24   D(5,4,14,10)          -92.9284         estimate D2E/DX2                !
 ! D25   D(5,4,14,13)          154.4726         estimate D2E/DX2                !
 ! D26   D(5,4,14,26)           34.648          estimate D2E/DX2                !
 ! D27   D(4,5,6,7)             42.8555         estimate D2E/DX2                !
 ! D28   D(4,5,6,18)           -79.1578         estimate D2E/DX2                !
 ! D29   D(4,5,6,19)           163.1597         estimate D2E/DX2                !
 ! D30   D(16,5,6,7)           -77.7961         estimate D2E/DX2                !
 ! D31   D(16,5,6,18)          160.1906         estimate D2E/DX2                !
 ! D32   D(16,5,6,19)           42.5081         estimate D2E/DX2                !
 ! D33   D(17,5,6,7)           163.3539         estimate D2E/DX2                !
 ! D34   D(17,5,6,18)           41.3406         estimate D2E/DX2                !
 ! D35   D(17,5,6,19)          -76.3419         estimate D2E/DX2                !
 ! D36   D(5,6,7,8)            -92.4936         estimate D2E/DX2                !
 ! D37   D(5,6,7,20)           147.8842         estimate D2E/DX2                !
 ! D38   D(5,6,7,21)            29.1553         estimate D2E/DX2                !
 ! D39   D(18,6,7,8)            30.2505         estimate D2E/DX2                !
 ! D40   D(18,6,7,20)          -89.3717         estimate D2E/DX2                !
 ! D41   D(18,6,7,21)          151.8994         estimate D2E/DX2                !
 ! D42   D(19,6,7,8)           147.4754         estimate D2E/DX2                !
 ! D43   D(19,6,7,20)           27.8532         estimate D2E/DX2                !
 ! D44   D(19,6,7,21)          -90.8757         estimate D2E/DX2                !
 ! D45   D(6,7,8,9)           -127.8233         estimate D2E/DX2                !
 ! D46   D(6,7,8,10)            53.1474         estimate D2E/DX2                !
 ! D47   D(20,7,8,9)            -5.96           estimate D2E/DX2                !
 ! D48   D(20,7,8,10)          175.0107         estimate D2E/DX2                !
 ! D49   D(21,7,8,9)           109.7603         estimate D2E/DX2                !
 ! D50   D(21,7,8,10)          -69.269          estimate D2E/DX2                !
 ! D51   D(7,8,10,11)           98.2586         estimate D2E/DX2                !
 ! D52   D(7,8,10,14)          -20.7073         estimate D2E/DX2                !
 ! D53   D(7,8,10,22)         -143.8094         estimate D2E/DX2                !
 ! D54   D(9,8,10,11)          -80.7912         estimate D2E/DX2                !
 ! D55   D(9,8,10,14)          160.2429         estimate D2E/DX2                !
 ! D56   D(9,8,10,22)           37.1408         estimate D2E/DX2                !
 ! D57   D(8,10,11,12)        -144.3362         estimate D2E/DX2                !
 ! D58   D(8,10,11,23)         -25.3571         estimate D2E/DX2                !
 ! D59   D(8,10,11,24)          96.3125         estimate D2E/DX2                !
 ! D60   D(14,10,11,12)        -14.0886         estimate D2E/DX2                !
 ! D61   D(14,10,11,23)        104.8905         estimate D2E/DX2                !
 ! D62   D(14,10,11,24)       -133.4399         estimate D2E/DX2                !
 ! D63   D(22,10,11,12)         98.4847         estimate D2E/DX2                !
 ! D64   D(22,10,11,23)       -142.5362         estimate D2E/DX2                !
 ! D65   D(22,10,11,24)        -20.8666         estimate D2E/DX2                !
 ! D66   D(8,10,14,4)           46.0142         estimate D2E/DX2                !
 ! D67   D(8,10,14,13)         163.5537         estimate D2E/DX2                !
 ! D68   D(8,10,14,26)         -80.8461         estimate D2E/DX2                !
 ! D69   D(11,10,14,4)         -78.0938         estimate D2E/DX2                !
 ! D70   D(11,10,14,13)         39.4457         estimate D2E/DX2                !
 ! D71   D(11,10,14,26)        155.0459         estimate D2E/DX2                !
 ! D72   D(22,10,14,4)         168.8341         estimate D2E/DX2                !
 ! D73   D(22,10,14,13)        -73.6263         estimate D2E/DX2                !
 ! D74   D(22,10,14,26)         41.9738         estimate D2E/DX2                !
 ! D75   D(10,11,12,2)         101.5922         estimate D2E/DX2                !
 ! D76   D(10,11,12,13)        -15.2857         estimate D2E/DX2                !
 ! D77   D(10,11,12,25)       -134.7629         estimate D2E/DX2                !
 ! D78   D(23,11,12,2)         -18.1943         estimate D2E/DX2                !
 ! D79   D(23,11,12,13)       -135.0722         estimate D2E/DX2                !
 ! D80   D(23,11,12,25)        105.4506         estimate D2E/DX2                !
 ! D81   D(24,11,12,2)        -138.9226         estimate D2E/DX2                !
 ! D82   D(24,11,12,13)        104.1996         estimate D2E/DX2                !
 ! D83   D(24,11,12,25)        -15.2777         estimate D2E/DX2                !
 ! D84   D(2,12,13,14)         -73.493          estimate D2E/DX2                !
 ! D85   D(11,12,13,14)         41.8382         estimate D2E/DX2                !
 ! D86   D(25,12,13,14)        164.4314         estimate D2E/DX2                !
 ! D87   D(12,13,14,4)          66.9002         estimate D2E/DX2                !
 ! D88   D(12,13,14,10)        -51.2122         estimate D2E/DX2                !
 ! D89   D(12,13,14,26)       -170.7582         estimate D2E/DX2                !
 --------------------------------------------------------------------------------
 Trust Radius=3.00D-01 FncErr=1.00D-07 GrdErr=1.00D-06 EigMax=2.50D+02 EigMin=1.00D-04
 Number of steps in this run=    156 maximum allowed number of steps=    156.
 GradGradGradGradGradGradGradGradGradGradGradGradGradGradGradGradGradGrad

 Leave Link  103 at Wed Jan 14 09:42:35 2026, MaxMem=  4294967296 cpu:               0.1 elap:               0.0
 (Enter /root//g16/l202.exe)
                          Input orientation:                          
 ---------------------------------------------------------------------
 Center     Atomic      Atomic             Coordinates (Angstroms)
 Number     Number       Type             X           Y           Z
 ---------------------------------------------------------------------
      1          8           0        3.027332    0.854787    1.301200
      2          6           0        2.080031    0.706460    0.554708
      3          6           0        0.890373    1.552548    0.548057
      4          6           0       -0.134386    1.282514   -0.274287
      5          6           0       -1.448831    1.981587   -0.230950
      6          6           0       -2.576944    0.948721   -0.095643
      7          6           0       -2.225303   -0.147008    0.921721
      8          6           0       -1.569777   -1.361966    0.307092
      9          8           0       -2.000290   -2.473141    0.517207
     10          6           0       -0.340783   -1.208981   -0.570970
     11          6           0        0.962100   -1.484350    0.212975
     12          6           0        1.958093   -0.467046   -0.414219
     13          8           0        1.351707   -0.030968   -1.612347
     14          6           0       -0.002348    0.145108   -1.248070
     15          1           0        0.863995    2.375900    1.247280
     16          1           0       -1.468142    2.672181    0.613051
     17          1           0       -1.591661    2.559044   -1.147402
     18          1           0       -2.794023    0.488900   -1.060746
     19          1           0       -3.480493    1.462212    0.232613
     20          1           0       -3.126415   -0.503446    1.424816
     21          1           0       -1.554955    0.257687    1.683945
     22          1           0       -0.423870   -1.959196   -1.364137
     23          1           0        0.842553   -1.302534    1.281949
     24          1           0        1.302201   -2.507686    0.075840
     25          1           0        2.934527   -0.893652   -0.645743
     26          1           0       -0.571125    0.323204   -2.161598
 ---------------------------------------------------------------------
                    Distance matrix (angstroms):
                    1          2          3          4          5
     1  O    0.000000
     2  C    1.215167   0.000000
     3  C    2.370799   1.459861   0.000000
     4  C    3.558310   2.433662   1.341380   0.000000
     5  C    4.863455   3.833545   2.502559   1.489411   0.000000
     6  C    5.776496   4.708404   3.577883   2.471724   1.535500
     7  C    5.360762   4.404430   3.568691   2.801053   2.542140
     8  C    5.199583   4.202476   3.821622   3.064576   3.388726
     9  O    6.080027   5.173035   4.956113   4.267669   4.550653
    10  C    4.371310   3.285788   3.223974   2.517572   3.394570
    11  C    3.304690   2.483183   3.056169   3.015832   4.245277
    12  C    2.415197   1.526698   2.478862   2.731118   4.199585
    13  O    3.475779   2.402163   2.718032   2.392512   3.715057
    14  C    4.022610   2.810948   2.450288   1.503124   2.549412
    15  H    2.645131   2.178400   1.080518   2.123070   2.773051
    16  H    4.897525   4.056721   2.611589   2.120718   1.090702
    17  H    5.498658   4.450906   3.169876   2.124973   1.092584
    18  H    6.292919   5.139399   4.158650   2.884789   2.173986
    19  H    6.622887   5.620884   4.383166   3.389052   2.147625
    20  H    6.303069   5.415537   4.596782   3.876705   3.425089
    21  H    4.636849   3.832713   2.991076   2.627348   2.578744
    22  H    5.189732   4.130037   4.209046   3.432238   4.226633
    23  H    3.070450   2.469066   2.948283   3.171554   4.280742
    24  H    3.972884   3.341417   4.108295   4.068413   5.274075
    25  H    2.618442   2.175226   3.404059   3.780464   5.258600
    26  H    5.022195   3.814948   3.315040   2.161703   2.692211
                    6          7          8          9         10
     6  C    0.000000
     7  C    1.536002   0.000000
     8  C    2.552618   1.511161   0.000000
     9  O    3.523812   2.371741   1.210040   0.000000
    10  C    3.143570   2.628180   1.518165   2.352912   0.000000
    11  C    4.305800   3.528505   2.536581   3.137837   1.545283
    12  C    4.761559   4.403176   3.710396   4.534398   2.420716
    13  O    4.323712   4.385199   3.740438   4.662091   2.310131
    14  C    2.932989   3.120073   2.673319   3.736737   1.551309
    15  H    3.959842   4.001852   4.558383   5.678938   4.196296
    16  H    2.168410   2.935369   4.047009   5.173654   4.211444
    17  H    2.161046   3.464893   4.182147   5.316087   4.011855
    18  H    1.090863   2.158239   2.606811   3.448714   3.023419
    19  H    1.089874   2.154057   3.410626   4.214143   4.199857
    20  H    2.173132   1.091859   2.099878   2.443687   3.498670
    21  H    2.165393   1.092763   2.125846   3.002835   2.951266
    22  H    3.834161   3.428460   2.112533   2.507728   1.094916
    23  H    4.319592   3.297992   2.602541   3.168108   2.200533
    24  H    5.198454   4.328002   3.100711   3.332034   2.191893
    25  H    5.837231   5.444104   4.627739   5.310335   3.291303
    26  H    2.946651   3.530476   3.151433   4.127717   2.220528
                   11         12         13         14         15
    11  C    0.000000
    12  C    1.555724   0.000000
    13  O    2.365568   1.411871   0.000000
    14  C    2.391641   2.216612   1.413212   0.000000
    15  H    3.997617   3.469866   3.769396   3.457421   0.000000
    16  H    4.831447   4.759108   4.495660   3.463874   2.434932
    17  H    4.972058   4.721815   3.948134   2.891909   3.434864
    18  H    4.429959   4.890238   4.214452   2.818994   4.718988
    19  H    5.330971   5.806776   5.383645   4.003084   4.554005
    20  H    4.375694   5.406995   5.431499   4.162299   4.923975
    21  H    3.396176   4.155602   4.404265   3.319635   3.244815
    22  H    2.152597   2.966918   2.632935   2.149243   5.222180
    23  H    1.090897   2.195325   3.202041   3.034885   3.678660
    24  H    1.087056   2.198764   2.997759   3.239121   5.041202
    25  H    2.230871   1.090422   2.045450   3.172863   4.308203
    26  H    3.355089   3.174078   2.030862   1.090760   4.230081
                   16         17         18         19         20
    16  H    0.000000
    17  H    1.768403   0.000000
    18  H    3.053895   2.395554   0.000000
    19  H    2.378722   2.583634   1.758225   0.000000
    20  H    3.673341   4.283762   2.696897   2.326055   0.000000
    21  H    2.642751   3.648852   3.020278   2.695357   1.765208
    22  H    5.142901   4.671746   3.420942   4.857839   4.147436
    23  H    4.645976   5.170970   4.682108   5.237715   4.051131
    24  H    5.898679   5.961754   5.201000   6.217623   5.044736
    25  H    5.803724   5.714819   5.907618   6.890144   6.416735
    26  H    3.744464   2.658772   2.486082   3.936243   4.480538
                   21         22         23         24         25
    21  H    0.000000
    22  H    3.935065   0.000000
    23  H    2.888587   3.006128   0.000000
    24  H    4.289129   2.313806   1.765890   0.000000
    25  H    5.187338   3.595873   2.873940   2.406299   0.000000
    26  H    3.969939   2.422184   4.061961   4.065638   4.008510
                   26
    26  H    0.000000
 Stoichiometry    C11H12O3
 Framework group  C1[X(C11H12O3)]
 Deg. of freedom    72
 Full point group                 C1      NOp   1
 Largest Abelian subgroup         C1      NOp   1
 Largest concise Abelian subgroup C1      NOp   1
                         Standard orientation:                         
 ---------------------------------------------------------------------
 Center     Atomic      Atomic             Coordinates (Angstroms)
 Number     Number       Type             X           Y           Z
 ---------------------------------------------------------------------
      1          8           0       -3.177335    0.256580   -1.291778
      2          6           0       -2.218402    0.279162   -0.545744
      3          6           0       -1.214979    1.339160   -0.518563
      4          6           0       -0.156412    1.255802    0.301063
      5          6           0        0.997836    2.196765    0.275646
      6          6           0        2.304365    1.404717    0.122666
      7          6           0        2.170294    0.282663   -0.917682
      8          6           0        1.762989   -1.048479   -0.329660
      9          8           0        2.400179   -2.050809   -0.561009
     10          6           0        0.528608   -1.154184    0.547810
     11          6           0       -0.697226   -1.660409   -0.245265
     12          6           0       -1.870568   -0.868104    0.399560
     13          8           0       -1.358702   -0.347485    1.608000
     14          6           0       -0.064733    0.094699    1.251229
     15          1           0       -1.349231    2.166158   -1.200888
     16          1           0        0.882182    2.895132   -0.554137
     17          1           0        1.027235    2.772107    1.204009
     18          1           0        2.607412    0.975983    1.078873
     19          1           0        3.091083    2.089949   -0.192543
     20          1           0        3.122789    0.117695   -1.425319
     21          1           0        1.433443    0.565464   -1.673463
     22          1           0        0.756206   -1.890178    1.325854
     23          1           0       -0.616325   -1.437102   -1.309993
     24          1           0       -0.832691   -2.732800   -0.129857
     25          1           0       -2.745717   -1.480241    0.619609
     26          1           0        0.459845    0.360801    2.169795
 ---------------------------------------------------------------------
 Rotational constants (GHZ):           1.1407735           0.6652549           0.5435192
 Leave Link  202 at Wed Jan 14 09:42:35 2026, MaxMem=  4294967296 cpu:               0.0 elap:               0.0
 (Enter /root//g16/l301.exe)
 Standard basis: def2SVP (5D, 7F)
 Ernie: Thresh=  0.10000D-02 Tol=  0.10000D-05 Strict=F.
 There are   270 symmetry adapted cartesian basis functions of A   symmetry.
 There are   256 symmetry adapted basis functions of A   symmetry.
   256 basis functions,   434 primitive gaussians,   270 cartesian basis functions
    51 alpha electrons       51 beta electrons
       nuclear repulsion energy       942.1320544005 Hartrees.
 IExCor=  402 DFT=T Ex+Corr=B3LYP ExCW=0 ScaHFX=  0.200000
 ScaDFX=  0.800000  0.720000  1.000000  0.810000 ScalE2=  1.000000  1.000000
 IRadAn=      5 IRanWt=     -1 IRanGd=            0 ICorTp=0 IEmpDi=141
 NAtoms=   26 NActive=   26 NUniq=   26 SFac= 1.00D+00 NAtFMM=   60 NAOKFM=F Big=F
 Integral buffers will be    131072 words long.
 Raffenetti 2 integral format.
 Two-electron integral symmetry is turned on.
 R6Disp:  Grimme-D3(BJ) Dispersion energy=       -0.0573838840 Hartrees.
 Nuclear repulsion after empirical dispersion term =      942.0746705165 Hartrees.
 Leave Link  301 at Wed Jan 14 09:42:35 2026, MaxMem=  4294967296 cpu:               0.3 elap:               0.0
 (Enter /root//g16/l302.exe)
 NPDir=0 NMtPBC=     1 NCelOv=     1 NCel=       1 NClECP=     1 NCelD=      1
         NCelK=      1 NCelE2=     1 NClLst=     1 CellRange=     0.0.
 One-electron integrals computed using PRISM.
 One-electron integral symmetry used in STVInt
   1 Symmetry operations used in ECPInt.
 ECPInt:  NShTT=    7260 NPrTT=   26324 LenC2=    7127 LenP2D=   19929.
 LDataN:  DoStor=T MaxTD1= 4 Len=   56
 NBasis=   256 RedAO= T EigKep=  3.46D-04  NBF=   256
 NBsUse=   256 1.00D-06 EigRej= -1.00D+00 NBFU=   256
 Precomputing XC quadrature grid using
 IXCGrd= 4 IRadAn=           5 IRanWt=          -1 IRanGd=           0 AccXCQ= 0.00D+00.
 Generated NRdTot=       0 NPtTot=           0 NUsed=           0 NTot=          32
 NSgBfM=   270   270   270   270   270 MxSgAt=    26 MxSgA2=    26.
 Leave Link  302 at Wed Jan 14 09:42:36 2026, MaxMem=  4294967296 cpu:               1.9 elap:               0.1
 (Enter /root//g16/l303.exe)
 DipDrv:  MaxL=1.
 Leave Link  303 at Wed Jan 14 09:42:36 2026, MaxMem=  4294967296 cpu:               0.3 elap:               0.0
 (Enter /root//g16/l401.exe)
 ExpMin= 1.22D-01 ExpMax= 2.27D+03 ExpMxC= 3.41D+02 IAcc=3 IRadAn=         5 AccDes= 0.00D+00
 Harris functional with IExCor=  402 and IRadAn=       5 diagonalized for initial guess.
 HarFok:  IExCor=  402 AccDes= 0.00D+00 IRadAn=         5 IDoV= 1 UseB2=F ITyADJ=14
 ICtDFT=  3500011 ScaDFX=  1.000000  1.000000  1.000000  1.000000
 FoFCou: FMM=F IPFlag=           0 FMFlag=      100000 FMFlg1=           0
         NFxFlg=           0 DoJE=T BraDBF=F KetDBF=T FulRan=T
         wScrn=  0.000000 ICntrl=       500 IOpCl=  0 I1Cent=   200000004 NGrid=           0
         NMat0=    1 NMatS0=      1 NMatT0=    0 NMatD0=    1 NMtDS0=    0 NMtDT0=    0
 Petite list used in FoFCou.
 Harris En= -651.600340010210    
 JPrj=0 DoOrth=F DoCkMO=F.
 Leave Link  401 at Wed Jan 14 09:42:36 2026, MaxMem=  4294967296 cpu:               7.0 elap:               0.5
 (Enter /root//g16/l502.exe)
 Integral symmetry usage will be decided dynamically.
 Closed shell SCF:
 Using DIIS extrapolation, IDIIS=  1040.
 NGot=  4294967296 LenX=  4294814202 LenY=  4294740861
 Requested convergence on RMS density matrix=1.00D-08 within 128 cycles.
 Requested convergence on MAX density matrix=1.00D-06.
 Requested convergence on             energy=1.00D-06.
 No special actions if energy rises.
 Fock matrices will be formed incrementally for  20 cycles.
 Integral accuracy reduced to 1.0D-05 until final iterations.

 Cycle   1  Pass 0  IDiag  1:
 FoFJK:  IHMeth= 1 ICntrl=       0 DoSepK=F KAlg= 0 I1Cent=           0 FoldK=F
 IRaf= 950000000 NMat=       1 IRICut=       1 DoRegI=T DoRafI=F ISym2E= 0 IDoP0=0 IntGTp=1.
 FoFCou: FMM=F IPFlag=           0 FMFlag=      100000 FMFlg1=           0
         NFxFlg=           0 DoJE=F BraDBF=F KetDBF=F FulRan=T
         wScrn=  0.000000 ICntrl=         0 IOpCl=  0 I1Cent=           0 NGrid=           0
         NMat0=    1 NMatS0=      1 NMatT0=    0 NMatD0=    1 NMtDS0=    0 NMtDT0=    0
 Symmetry not used in FoFCou.
 E= -651.312806549869    
 DIIS: error= 1.77D-02 at cycle   1 NSaved=   1.
 NSaved= 1 IEnMin= 1 EnMin= -651.312806549869     IErMin= 1 ErrMin= 1.77D-02
 ErrMax= 1.77D-02  0.00D+00 EMaxC= 1.00D-01 BMatC= 3.12D-01 BMatP= 3.12D-01
 IDIUse=3 WtCom= 8.23D-01 WtEn= 1.77D-01
 Coeff-Com:  0.100D+01
 Coeff-En:   0.100D+01
 Coeff:      0.100D+01
 Gap=     0.141 Goal=   None    Shift=    0.000
 GapD=    0.141 DampG=1.000 DampE=0.500 DampFc=0.5000 IDamp=-1.
 Damping current iteration by 5.00D-01
 RMSDP=8.76D-03 MaxDP=4.64D-01              OVMax= 2.30D-01

 Cycle   2  Pass 0  IDiag  1:
 RMSU=  4.38D-03    CP:  9.97D-01
 E= -651.411528601454     Delta-E=       -0.098722051585 Rises=F Damp=T
 DIIS: error= 7.59D-03 at cycle   2 NSaved=   2.
 NSaved= 2 IEnMin= 2 EnMin= -651.411528601454     IErMin= 2 ErrMin= 7.59D-03
 ErrMax= 7.59D-03  0.00D+00 EMaxC= 1.00D-01 BMatC= 4.44D-02 BMatP= 3.12D-01
 IDIUse=3 WtCom= 9.24D-01 WtEn= 7.59D-02
 Coeff-Com:  0.197D+00 0.803D+00
 Coeff-En:   0.277D+00 0.723D+00
 Coeff:      0.203D+00 0.797D+00
 Gap=     0.202 Goal=   None    Shift=    0.000
 RMSDP=2.77D-03 MaxDP=1.61D-01 DE=-9.87D-02 OVMax= 1.45D-01

 Cycle   3  Pass 0  IDiag  1:
 RMSU=  2.41D-03    CP:  9.68D-01  7.22D-01
 E= -651.564723596038     Delta-E=       -0.153194994583 Rises=F Damp=F
 DIIS: error= 9.44D-03 at cycle   3 NSaved=   3.
 NSaved= 3 IEnMin= 3 EnMin= -651.564723596038     IErMin= 2 ErrMin= 7.59D-03
 ErrMax= 9.44D-03  0.00D+00 EMaxC= 1.00D-01 BMatC= 4.96D-02 BMatP= 4.44D-02
 IDIUse=3 WtCom= 9.33D-02 WtEn= 9.07D-01
 Coeff-Com:  0.468D-01 0.510D+00 0.443D+00
 Coeff-En:   0.000D+00 0.000D+00 0.100D+01
 Coeff:      0.437D-02 0.476D-01 0.948D+00
 Gap=     0.165 Goal=   None    Shift=    0.000
 RMSDP=3.80D-03 MaxDP=1.90D-01 DE=-1.53D-01 OVMax= 2.20D-01

 Cycle   4  Pass 0  IDiag  1:
 RMSU=  2.06D-03    CP:  9.94D-01  1.27D+00  1.51D-01
 E= -651.399583232021     Delta-E=        0.165140364017 Rises=F Damp=F
 DIIS: error= 2.05D-02 at cycle   4 NSaved=   4.
 NSaved= 4 IEnMin= 3 EnMin= -651.564723596038     IErMin= 2 ErrMin= 7.59D-03
 ErrMax= 2.05D-02  0.00D+00 EMaxC= 1.00D-01 BMatC= 2.52D-01 BMatP= 4.44D-02
 IDIUse=2 WtCom= 0.00D+00 WtEn= 1.00D+00
 Coeff-En:   0.000D+00 0.000D+00 0.768D+00 0.232D+00
 Coeff:      0.000D+00 0.000D+00 0.768D+00 0.232D+00
 Gap=     0.170 Goal=   None    Shift=    0.000
 RMSDP=2.28D-03 MaxDP=1.26D-01 DE= 1.65D-01 OVMax= 9.71D-02

 Cycle   5  Pass 0  IDiag  1:
 RMSU=  2.65D-04    CP:  9.80D-01  8.91D-01  6.08D-01  4.95D-01
 E= -651.596094318345     Delta-E=       -0.196511086325 Rises=F Damp=F
 DIIS: error= 5.18D-03 at cycle   5 NSaved=   5.
 NSaved= 5 IEnMin= 5 EnMin= -651.596094318345     IErMin= 5 ErrMin= 5.18D-03
 ErrMax= 5.18D-03  0.00D+00 EMaxC= 1.00D-01 BMatC= 1.50D-02 BMatP= 4.44D-02
 IDIUse=3 WtCom= 9.48D-01 WtEn= 5.18D-02
 Coeff-Com: -0.548D-02 0.371D-01 0.285D+00-0.727D-01 0.756D+00
 Coeff-En:   0.000D+00 0.000D+00 0.277D+00 0.000D+00 0.723D+00
 Coeff:     -0.520D-02 0.352D-01 0.285D+00-0.689D-01 0.754D+00
 Gap=     0.175 Goal=   None    Shift=    0.000
 RMSDP=6.17D-04 MaxDP=2.52D-02 DE=-1.97D-01 OVMax= 2.16D-02

 Cycle   6  Pass 0  IDiag  1:
 RMSU=  9.37D-05    CP:  9.75D-01  8.17D-01  7.47D-01  3.11D-01  8.43D-01
 E= -651.608914597631     Delta-E=       -0.012820279286 Rises=F Damp=F
 DIIS: error= 4.32D-04 at cycle   6 NSaved=   6.
 NSaved= 6 IEnMin= 6 EnMin= -651.608914597631     IErMin= 6 ErrMin= 4.32D-04
 ErrMax= 4.32D-04  0.00D+00 EMaxC= 1.00D-01 BMatC= 1.19D-04 BMatP= 1.50D-02
 IDIUse=3 WtCom= 9.96D-01 WtEn= 4.32D-03
 Coeff-Com: -0.741D-02 0.216D-01 0.142D+00-0.678D-01 0.498D+00 0.414D+00
 Coeff-En:   0.000D+00 0.000D+00 0.000D+00 0.000D+00 0.000D+00 0.100D+01
 Coeff:     -0.738D-02 0.215D-01 0.141D+00-0.675D-01 0.496D+00 0.416D+00
 Gap=     0.174 Goal=   None    Shift=    0.000
 RMSDP=5.95D-05 MaxDP=2.75D-03 DE=-1.28D-02 OVMax= 4.90D-03

 Cycle   7  Pass 0  IDiag  1:
 RMSU=  2.50D-05    CP:  9.75D-01  8.19D-01  7.46D-01  3.11D-01  8.79D-01
                    CP:  4.49D-01
 E= -651.609022695643     Delta-E=       -0.000108098011 Rises=F Damp=F
 DIIS: error= 1.11D-04 at cycle   7 NSaved=   7.
 NSaved= 7 IEnMin= 7 EnMin= -651.609022695643     IErMin= 7 ErrMin= 1.11D-04
 ErrMax= 1.11D-04  0.00D+00 EMaxC= 1.00D-01 BMatC= 4.02D-06 BMatP= 1.19D-04
 IDIUse=3 WtCom= 9.99D-01 WtEn= 1.11D-03
 Coeff-Com: -0.259D-02 0.604D-02 0.445D-01-0.252D-01 0.168D+00 0.190D+00
 Coeff-Com:  0.619D+00
 Coeff-En:   0.000D+00 0.000D+00 0.000D+00 0.000D+00 0.000D+00 0.000D+00
 Coeff-En:   0.100D+01
 Coeff:     -0.258D-02 0.604D-02 0.445D-01-0.252D-01 0.168D+00 0.190D+00
 Coeff:      0.619D+00
 Gap=     0.174 Goal=   None    Shift=    0.000
 RMSDP=1.48D-05 MaxDP=8.04D-04 DE=-1.08D-04 OVMax= 4.99D-04

 Cycle   8  Pass 0  IDiag  1:
 RMSU=  8.68D-06    CP:  9.75D-01  8.18D-01  7.48D-01  3.12D-01  8.80D-01
                    CP:  5.00D-01  6.71D-01
 E= -651.609025458115     Delta-E=       -0.000002762472 Rises=F Damp=F
 DIIS: error= 4.63D-05 at cycle   8 NSaved=   8.
 NSaved= 8 IEnMin= 8 EnMin= -651.609025458115     IErMin= 8 ErrMin= 4.63D-05
 ErrMax= 4.63D-05  0.00D+00 EMaxC= 1.00D-01 BMatC= 8.54D-07 BMatP= 4.02D-06
 IDIUse=1 WtCom= 1.00D+00 WtEn= 0.00D+00
 Coeff-Com: -0.623D-03 0.956D-03 0.131D-01-0.776D-02 0.495D-01 0.699D-01
 Coeff-Com:  0.382D+00 0.493D+00
 Coeff:     -0.623D-03 0.956D-03 0.131D-01-0.776D-02 0.495D-01 0.699D-01
 Coeff:      0.382D+00 0.493D+00
 Gap=     0.174 Goal=   None    Shift=    0.000
 RMSDP=5.17D-06 MaxDP=2.53D-04 DE=-2.76D-06 OVMax= 2.61D-04

 Initial convergence to 1.0D-05 achieved.  Increase integral accuracy.
 Cycle   9  Pass 1  IDiag  1:
 E= -651.609022097422     Delta-E=        0.000003360693 Rises=F Damp=F
 DIIS: error= 3.13D-05 at cycle   1 NSaved=   1.
 NSaved= 1 IEnMin= 1 EnMin= -651.609022097422     IErMin= 1 ErrMin= 3.13D-05
 ErrMax= 3.13D-05  0.00D+00 EMaxC= 1.00D-01 BMatC= 2.41D-07 BMatP= 2.41D-07
 IDIUse=1 WtCom= 1.00D+00 WtEn= 0.00D+00
 Coeff-Com:  0.100D+01
 Coeff:      0.100D+01
 Gap=     0.174 Goal=   None    Shift=    0.000
 RMSDP=5.17D-06 MaxDP=2.53D-04 DE= 3.36D-06 OVMax= 2.70D-04

 Cycle  10  Pass 1  IDiag  1:
 RMSU=  1.97D-05    CP:  1.00D+00
 E= -651.609021995452     Delta-E=        0.000000101970 Rises=F Damp=F
 DIIS: error= 2.63D-05 at cycle   2 NSaved=   2.
 NSaved= 2 IEnMin= 1 EnMin= -651.609022097422     IErMin= 2 ErrMin= 2.63D-05
 ErrMax= 2.63D-05  0.00D+00 EMaxC= 1.00D-01 BMatC= 3.41D-07 BMatP= 2.41D-07
 IDIUse=1 WtCom= 1.00D+00 WtEn= 0.00D+00
 Coeff-Com:  0.555D+00 0.445D+00
 Coeff:      0.555D+00 0.445D+00
 Gap=     0.174 Goal=   None    Shift=    0.000
 RMSDP=3.98D-06 MaxDP=2.06D-04 DE= 1.02D-07 OVMax= 2.64D-04

 Cycle  11  Pass 1  IDiag  1:
 RMSU=  3.90D-06    CP:  1.00D+00  9.71D-01
 E= -651.609022248481     Delta-E=       -0.000000253029 Rises=F Damp=F
 DIIS: error= 1.26D-05 at cycle   3 NSaved=   3.
 NSaved= 3 IEnMin= 3 EnMin= -651.609022248481     IErMin= 3 ErrMin= 1.26D-05
 ErrMax= 1.26D-05  0.00D+00 EMaxC= 1.00D-01 BMatC= 6.09D-08 BMatP= 2.41D-07
 IDIUse=1 WtCom= 1.00D+00 WtEn= 0.00D+00
 Coeff-Com:  0.362D-01 0.294D+00 0.670D+00
 Coeff:      0.362D-01 0.294D+00 0.670D+00
 Gap=     0.174 Goal=   None    Shift=    0.000
 RMSDP=1.52D-06 MaxDP=9.18D-05 DE=-2.53D-07 OVMax= 7.29D-05

 Cycle  12  Pass 1  IDiag  1:
 RMSU=  8.62D-07    CP:  1.00D+00  9.86D-01  6.96D-01
 E= -651.609022296235     Delta-E=       -0.000000047754 Rises=F Damp=F
 DIIS: error= 3.27D-06 at cycle   4 NSaved=   4.
 NSaved= 4 IEnMin= 4 EnMin= -651.609022296235     IErMin= 4 ErrMin= 3.27D-06
 ErrMax= 3.27D-06  0.00D+00 EMaxC= 1.00D-01 BMatC= 5.74D-09 BMatP= 6.09D-08
 IDIUse=1 WtCom= 1.00D+00 WtEn= 0.00D+00
 Coeff-Com: -0.258D-02 0.163D+00 0.414D+00 0.426D+00
 Coeff:     -0.258D-02 0.163D+00 0.414D+00 0.426D+00
 Gap=     0.174 Goal=   None    Shift=    0.000
 RMSDP=4.97D-07 MaxDP=2.23D-05 DE=-4.78D-08 OVMax= 1.52D-05

 Cycle  13  Pass 1  IDiag  1:
 RMSU=  1.64D-07    CP:  1.00D+00  9.89D-01  7.23D-01  4.84D-01
 E= -651.609022301102     Delta-E=       -0.000000004867 Rises=F Damp=F
 DIIS: error= 7.75D-07 at cycle   5 NSaved=   5.
 NSaved= 5 IEnMin= 5 EnMin= -651.609022301102     IErMin= 5 ErrMin= 7.75D-07
 ErrMax= 7.75D-07  0.00D+00 EMaxC= 1.00D-01 BMatC= 3.22D-10 BMatP= 5.74D-09
 IDIUse=1 WtCom= 1.00D+00 WtEn= 0.00D+00
 Coeff-Com: -0.339D-02 0.911D-01 0.235D+00 0.275D+00 0.402D+00
 Coeff:     -0.339D-02 0.911D-01 0.235D+00 0.275D+00 0.402D+00
 Gap=     0.174 Goal=   None    Shift=    0.000
 RMSDP=9.55D-08 MaxDP=4.12D-06 DE=-4.87D-09 OVMax= 3.50D-06

 Cycle  14  Pass 1  IDiag  1:
 RMSU=  5.88D-08    CP:  1.00D+00  9.89D-01  7.21D-01  4.88D-01  5.60D-01
 E= -651.609022301366     Delta-E=       -0.000000000264 Rises=F Damp=F
 DIIS: error= 1.55D-07 at cycle   6 NSaved=   6.
 NSaved= 6 IEnMin= 6 EnMin= -651.609022301366     IErMin= 6 ErrMin= 1.55D-07
 ErrMax= 1.55D-07  0.00D+00 EMaxC= 1.00D-01 BMatC= 9.74D-12 BMatP= 3.22D-10
 IDIUse=1 WtCom= 1.00D+00 WtEn= 0.00D+00
 Coeff-Com: -0.161D-02 0.376D-01 0.967D-01 0.118D+00 0.210D+00 0.539D+00
 Coeff:     -0.161D-02 0.376D-01 0.967D-01 0.118D+00 0.210D+00 0.539D+00
 Gap=     0.174 Goal=   None    Shift=    0.000
 RMSDP=2.05D-08 MaxDP=1.01D-06 DE=-2.64D-10 OVMax= 1.13D-06

 Cycle  15  Pass 1  IDiag  1:
 RMSU=  1.82D-08    CP:  1.00D+00  9.89D-01  7.21D-01  4.82D-01  5.80D-01
                    CP:  8.93D-01
 E= -651.609022301379     Delta-E=       -0.000000000013 Rises=F Damp=F
 DIIS: error= 5.84D-08 at cycle   7 NSaved=   7.
 NSaved= 7 IEnMin= 7 EnMin= -651.609022301379     IErMin= 7 ErrMin= 5.84D-08
 ErrMax= 5.84D-08  0.00D+00 EMaxC= 1.00D-01 BMatC= 1.58D-12 BMatP= 9.74D-12
 IDIUse=1 WtCom= 1.00D+00 WtEn= 0.00D+00
 Coeff-Com: -0.388D-03 0.727D-02 0.181D-01 0.250D-01 0.554D-01 0.310D+00
 Coeff-Com:  0.585D+00
 Coeff:     -0.388D-03 0.727D-02 0.181D-01 0.250D-01 0.554D-01 0.310D+00
 Coeff:      0.585D+00
 Gap=     0.174 Goal=   None    Shift=    0.000
 RMSDP=9.55D-09 MaxDP=5.67D-07 DE=-1.34D-11 OVMax= 6.76D-07

 SCF Done:  E(RB3LYP) =  -651.609022301     A.U. after   15 cycles
            NFock= 15  Conv=0.95D-08     -V/T= 2.0094
 KE= 6.455521345287D+02 PE=-3.400905157597D+03 EE= 1.161669330250D+03
 Leave Link  502 at Wed Jan 14 09:42:47 2026, MaxMem=  4294967296 cpu:             179.3 elap:              11.2
 (Enter /root//g16/l508.exe)
 QCSCF skips out because SCF is already converged.
 Leave Link  508 at Wed Jan 14 09:42:47 2026, MaxMem=  4294967296 cpu:               0.0 elap:               0.0
 (Enter /root//g16/l601.exe)
 Copying SCF densities to generalized density rwf, IOpCl= 0 IROHF=0.

 **********************************************************************

            Population analysis using the SCF density.

 **********************************************************************

 Orbital symmetries:
       Occupied  (A) (A) (A) (A) (A) (A) (A) (A) (A) (A) (A) (A)
                 (A) (A) (A) (A) (A) (A) (A) (A) (A) (A) (A) (A)
                 (A) (A) (A) (A) (A) (A) (A) (A) (A) (A) (A) (A)
                 (A) (A) (A) (A) (A) (A) (A) (A) (A) (A) (A) (A)
                 (A) (A) (A)
       Virtual   (A) (A) (A) (A) (A) (A) (A) (A) (A) (A) (A) (A)
                 (A) (A) (A) (A) (A) (A) (A) (A) (A) (A) (A) (A)
                 (A) (A) (A) (A) (A) (A) (A) (A) (A) (A) (A) (A)
                 (A) (A) (A) (A) (A) (A) (A) (A) (A) (A) (A) (A)
                 (A) (A) (A) (A) (A) (A) (A) (A) (A) (A) (A) (A)
                 (A) (A) (A) (A) (A) (A) (A) (A) (A) (A) (A) (A)
                 (A) (A) (A) (A) (A) (A) (A) (A) (A) (A) (A) (A)
                 (A) (A) (A) (A) (A) (A) (A) (A) (A) (A) (A) (A)
                 (A) (A) (A) (A) (A) (A) (A) (A) (A) (A) (A) (A)
                 (A) (A) (A) (A) (A) (A) (A) (A) (A) (A) (A) (A)
                 (A) (A) (A) (A) (A) (A) (A) (A) (A) (A) (A) (A)
                 (A) (A) (A) (A) (A) (A) (A) (A) (A) (A) (A) (A)
                 (A) (A) (A) (A) (A) (A) (A) (A) (A) (A) (A) (A)
                 (A) (A) (A) (A) (A) (A) (A) (A) (A) (A) (A) (A)
                 (A) (A) (A) (A) (A) (A) (A) (A) (A) (A) (A) (A)
                 (A) (A) (A) (A) (A) (A) (A) (A) (A) (A) (A) (A)
                 (A) (A) (A) (A) (A) (A) (A) (A) (A) (A) (A) (A)
                 (A)
 The electronic state is 1-A.
 Alpha  occ. eigenvalues --  -19.15352 -19.13352 -19.12426 -10.28500 -10.27081
 Alpha  occ. eigenvalues --  -10.26396 -10.24735 -10.22804 -10.21672 -10.21667
 Alpha  occ. eigenvalues --  -10.21525 -10.21169 -10.20565 -10.20092  -1.07085
 Alpha  occ. eigenvalues --   -1.04412  -1.02828  -0.86304  -0.80723  -0.80007
 Alpha  occ. eigenvalues --   -0.77201  -0.73164  -0.65294  -0.64821  -0.63394
 Alpha  occ. eigenvalues --   -0.58272  -0.56221  -0.54710  -0.52247  -0.51019
 Alpha  occ. eigenvalues --   -0.49688  -0.47646  -0.45806  -0.44935  -0.44525
 Alpha  occ. eigenvalues --   -0.44267  -0.43353  -0.42586  -0.40390  -0.40136
 Alpha  occ. eigenvalues --   -0.39428  -0.37994  -0.37527  -0.36624  -0.36221
 Alpha  occ. eigenvalues --   -0.35804  -0.33663  -0.30525  -0.28230  -0.25939
 Alpha  occ. eigenvalues --   -0.24085
 Alpha virt. eigenvalues --   -0.06652  -0.03399   0.03178   0.03909   0.05432
 Alpha virt. eigenvalues --    0.06492   0.07911   0.08485   0.09780   0.10938
 Alpha virt. eigenvalues --    0.11417   0.12815   0.12877   0.13985   0.14967
 Alpha virt. eigenvalues --    0.15183   0.16649   0.18713   0.19231   0.20386
 Alpha virt. eigenvalues --    0.21623   0.22101   0.25044   0.25554   0.26457
 Alpha virt. eigenvalues --    0.27137   0.29792   0.32986   0.33374   0.35280
 Alpha virt. eigenvalues --    0.36560   0.39217   0.42755   0.42879   0.44377
 Alpha virt. eigenvalues --    0.46248   0.48077   0.48868   0.49481   0.50585
 Alpha virt. eigenvalues --    0.51593   0.53401   0.55466   0.56425   0.56477
 Alpha virt. eigenvalues --    0.57148   0.57868   0.58860   0.59743   0.60785
 Alpha virt. eigenvalues --    0.61476   0.62055   0.62710   0.63424   0.63522
 Alpha virt. eigenvalues --    0.64214   0.64678   0.65784   0.65939   0.66540
 Alpha virt. eigenvalues --    0.67244   0.67971   0.68725   0.69319   0.69665
 Alpha virt. eigenvalues --    0.69985   0.71814   0.72029   0.72794   0.74922
 Alpha virt. eigenvalues --    0.76454   0.77635   0.80435   0.80750   0.84896
 Alpha virt. eigenvalues --    0.87041   0.88112   0.89998   0.91784   0.93060
 Alpha virt. eigenvalues --    0.93465   1.00084   1.00592   1.06696   1.08798
 Alpha virt. eigenvalues --    1.10925   1.13191   1.14699   1.16100   1.17318
 Alpha virt. eigenvalues --    1.19065   1.20303   1.22018   1.25666   1.29360
 Alpha virt. eigenvalues --    1.30400   1.33404   1.35861   1.38223   1.39505
 Alpha virt. eigenvalues --    1.40782   1.43524   1.46549   1.48773   1.51564
 Alpha virt. eigenvalues --    1.54144   1.54996   1.55875   1.57444   1.60255
 Alpha virt. eigenvalues --    1.61941   1.64543   1.65287   1.68626   1.69466
 Alpha virt. eigenvalues --    1.70536   1.71162   1.72689   1.73609   1.74540
 Alpha virt. eigenvalues --    1.75389   1.76151   1.77414   1.78979   1.79544
 Alpha virt. eigenvalues --    1.80244   1.81438   1.82818   1.82981   1.84553
 Alpha virt. eigenvalues --    1.86311   1.87624   1.88374   1.89619   1.90089
 Alpha virt. eigenvalues --    1.91520   1.92820   1.95570   1.96659   1.97737
 Alpha virt. eigenvalues --    1.99655   2.01500   2.03080   2.04232   2.06138
 Alpha virt. eigenvalues --    2.07557   2.09738   2.11850   2.13030   2.14834
 Alpha virt. eigenvalues --    2.17316   2.18146   2.20406   2.21148   2.24308
 Alpha virt. eigenvalues --    2.26626   2.27244   2.32161   2.32512   2.34775
 Alpha virt. eigenvalues --    2.35843   2.37786   2.39556   2.44598   2.45320
 Alpha virt. eigenvalues --    2.47176   2.48790   2.51732   2.54438   2.56270
 Alpha virt. eigenvalues --    2.56753   2.61812   2.62718   2.65085   2.66368
 Alpha virt. eigenvalues --    2.68919   2.70827   2.72412   2.74249   2.76272
 Alpha virt. eigenvalues --    2.77320   2.79859   2.82727   2.87698   2.88791
 Alpha virt. eigenvalues --    2.89768   2.92971   2.93486   2.96425   2.97350
 Alpha virt. eigenvalues --    2.99423   3.02950   3.04734   3.06250   3.09698
 Alpha virt. eigenvalues --    3.14154   3.16187   3.17434   3.22314   3.30766
 Alpha virt. eigenvalues --    3.37049   3.41402   3.57557   3.62078   3.64652
          Condensed to atoms (all electrons):
               1          2          3          4          5          6
     1  O    7.603090   0.737435  -0.096783   0.006857  -0.000100   0.000002
     2  C    0.737435   4.875031   0.172273   0.077337   0.008407   0.000142
     3  C   -0.096783   0.172273   5.482413   0.290992  -0.047638  -0.004599
     4  C    0.006857   0.077337   0.290992   5.555140   0.344957  -0.049756
     5  C   -0.000100   0.008407  -0.047638   0.344957   4.643237   0.377609
     6  C    0.000002   0.000142  -0.004599  -0.049756   0.377609   4.694665
     7  C    0.000002  -0.001516   0.004316   0.003029  -0.052926   0.360043
     8  C   -0.000011   0.001761  -0.003305   0.004930  -0.015082  -0.019516
     9  O   -0.000000  -0.000017   0.000007  -0.000209  -0.000014   0.001873
    10  C    0.000235  -0.011572  -0.004619  -0.043362  -0.001031   0.021055
    11  C    0.000492  -0.057438   0.033901  -0.049248   0.001220  -0.002566
    12  C   -0.086103   0.231067  -0.186462   0.008500  -0.001933   0.000536
    13  O    0.001395  -0.024468   0.000860  -0.053306   0.005185  -0.000305
    14  C    0.000489  -0.055659   0.017959   0.097277  -0.072203  -0.003393
    15  H    0.005915  -0.046089   0.408195  -0.063893  -0.022921   0.000740
    16  H   -0.000010   0.000743  -0.021903  -0.006201   0.350249  -0.008922
    17  H    0.000003  -0.000826   0.003743   0.004700   0.328906  -0.010478
    18  H    0.000000   0.000086  -0.000985  -0.024565   0.000407   0.359961
    19  H   -0.000000   0.000008   0.000206   0.009211  -0.006975   0.340469
    20  H   -0.000000   0.000033  -0.000054  -0.000684   0.007460  -0.001295
    21  H   -0.000013   0.000228  -0.002458   0.011411  -0.008922  -0.023391
    22  H   -0.000010   0.000269  -0.000377   0.011181  -0.000301  -0.001335
    23  H    0.001613  -0.000947  -0.000943   0.005414   0.000654   0.000018
    24  H   -0.000212   0.003154  -0.001249   0.001232  -0.000051  -0.000011
    25  H    0.009199  -0.016180   0.014698   0.000583   0.000132  -0.000013
    26  H    0.000016   0.000709   0.007274  -0.039089   0.002271  -0.006445
               7          8          9         10         11         12
     1  O    0.000002  -0.000011  -0.000000   0.000235   0.000492  -0.086103
     2  C   -0.001516   0.001761  -0.000017  -0.011572  -0.057438   0.231067
     3  C    0.004316  -0.003305   0.000007  -0.004619   0.033901  -0.186462
     4  C    0.003029   0.004930  -0.000209  -0.043362  -0.049248   0.008500
     5  C   -0.052926  -0.015082  -0.000014  -0.001031   0.001220  -0.001933
     6  C    0.360043  -0.019516   0.001873   0.021055  -0.002566   0.000536
     7  C    4.957124   0.342385  -0.094883  -0.242051   0.010446  -0.000859
     8  C    0.342385   4.824112   0.735104   0.124864  -0.024844   0.009701
     9  O   -0.094883   0.735104   7.617510  -0.103634   0.000489   0.000034
    10  C   -0.242051   0.124864  -0.103634   5.724048   0.271186  -0.070856
    11  C    0.010446  -0.024844   0.000489   0.271186   4.837374   0.289179
    12  C   -0.000859   0.009701   0.000034  -0.070856   0.289179   5.119245
    13  O    0.000145   0.005047  -0.000021  -0.028968  -0.078189   0.281288
    14  C    0.014513  -0.004173   0.006346   0.125959  -0.004750  -0.054190
    15  H   -0.000254   0.000141   0.000000  -0.000601  -0.001403   0.018081
    16  H   -0.012451   0.000383   0.000001  -0.001383   0.000048  -0.000212
    17  H    0.007944   0.000170   0.000004   0.000215   0.000054   0.000198
    18  H   -0.043789   0.001261   0.001081  -0.010081   0.000661  -0.000212
    19  H    0.005035   0.002717  -0.000183   0.000040  -0.000010  -0.000006
    20  H    0.288743   0.010446   0.011454   0.017305  -0.000511   0.000016
    21  H    0.324693   0.003410   0.002285   0.008804   0.000221  -0.000447
    22  H    0.014518   0.011275   0.006648   0.265083   0.016354  -0.006463
    23  H    0.003443  -0.003085  -0.000226  -0.000456   0.340799  -0.016185
    24  H   -0.000350   0.001656   0.001614   0.015593   0.304820   0.024600
    25  H    0.000030  -0.000412  -0.000004   0.006056  -0.000651   0.310970
    26  H    0.000456  -0.001017   0.000009  -0.015344   0.012744   0.002437
              13         14         15         16         17         18
     1  O    0.001395   0.000489   0.005915  -0.000010   0.000003   0.000000
     2  C   -0.024468  -0.055659  -0.046089   0.000743  -0.000826   0.000086
     3  C    0.000860   0.017959   0.408195  -0.021903   0.003743  -0.000985
     4  C   -0.053306   0.097277  -0.063893  -0.006201   0.004700  -0.024565
     5  C    0.005185  -0.072203  -0.022921   0.350249   0.328906   0.000407
     6  C   -0.000305  -0.003393   0.000740  -0.008922  -0.010478   0.359961
     7  C    0.000145   0.014513  -0.000254  -0.012451   0.007944  -0.043789
     8  C    0.005047  -0.004173   0.000141   0.000383   0.000170   0.001261
     9  O   -0.000021   0.006346   0.000000   0.000001   0.000004   0.001081
    10  C   -0.028968   0.125959  -0.000601  -0.001383   0.000215  -0.010081
    11  C   -0.078189  -0.004750  -0.001403   0.000048   0.000054   0.000661
    12  C    0.281288  -0.054190   0.018081  -0.000212   0.000198  -0.000212
    13  O    7.974918   0.286440  -0.000850  -0.000195   0.000118   0.000025
    14  C    0.286440   5.067414   0.010243   0.013318  -0.010042   0.018854
    15  H   -0.000850   0.010243   0.706857   0.007697   0.000767  -0.000021
    16  H   -0.000195   0.013318   0.007697   0.706619  -0.025728   0.008107
    17  H    0.000118  -0.010042   0.000767  -0.025728   0.687081  -0.012459
    18  H    0.000025   0.018854  -0.000021   0.008107  -0.012459   0.702649
    19  H    0.000000  -0.000711  -0.000070  -0.013865  -0.001824  -0.023107
    20  H    0.000006  -0.000010  -0.000009   0.000277  -0.000383   0.000894
    21  H    0.000024  -0.007367   0.000182   0.005692   0.000688   0.009218
    22  H    0.003277  -0.010483   0.000030   0.000027  -0.000018  -0.000164
    23  H    0.004172  -0.015651  -0.000558  -0.000045  -0.000016  -0.000018
    24  H    0.001801   0.003772   0.000045  -0.000001   0.000003  -0.000012
    25  H   -0.017458   0.002349  -0.000572  -0.000004   0.000001   0.000001
    26  H   -0.020716   0.360460  -0.000367  -0.000361   0.004764   0.000648
              19         20         21         22         23         24
     1  O   -0.000000  -0.000000  -0.000013  -0.000010   0.001613  -0.000212
     2  C    0.000008   0.000033   0.000228   0.000269  -0.000947   0.003154
     3  C    0.000206  -0.000054  -0.002458  -0.000377  -0.000943  -0.001249
     4  C    0.009211  -0.000684   0.011411   0.011181   0.005414   0.001232
     5  C   -0.006975   0.007460  -0.008922  -0.000301   0.000654  -0.000051
     6  C    0.340469  -0.001295  -0.023391  -0.001335   0.000018  -0.000011
     7  C    0.005035   0.288743   0.324693   0.014518   0.003443  -0.000350
     8  C    0.002717   0.010446   0.003410   0.011275  -0.003085   0.001656
     9  O   -0.000183   0.011454   0.002285   0.006648  -0.000226   0.001614
    10  C    0.000040   0.017305   0.008804   0.265083  -0.000456   0.015593
    11  C   -0.000010  -0.000511   0.000221   0.016354   0.340799   0.304820
    12  C   -0.000006   0.000016  -0.000447  -0.006463  -0.016185   0.024600
    13  O    0.000000   0.000006   0.000024   0.003277   0.004172   0.001801
    14  C   -0.000711  -0.000010  -0.007367  -0.010483  -0.015651   0.003772
    15  H   -0.000070  -0.000009   0.000182   0.000030  -0.000558   0.000045
    16  H   -0.013865   0.000277   0.005692   0.000027  -0.000045  -0.000001
    17  H   -0.001824  -0.000383   0.000688  -0.000018  -0.000016   0.000003
    18  H   -0.023107   0.000894   0.009218  -0.000164  -0.000018  -0.000012
    19  H    0.685781  -0.014953  -0.002604   0.000053   0.000012   0.000001
    20  H   -0.014953   0.685478  -0.012847  -0.000678  -0.000408   0.000012
    21  H   -0.002604  -0.012847   0.669927  -0.000147   0.001202  -0.000065
    22  H    0.000053  -0.000678  -0.000147   0.692437   0.006808  -0.018357
    23  H    0.000012  -0.000408   0.001202   0.006808   0.667193  -0.020827
    24  H    0.000001   0.000012  -0.000065  -0.018357  -0.020827   0.670589
    25  H    0.000000  -0.000000   0.000008   0.000269   0.006122  -0.015452
    26  H   -0.000013  -0.000000   0.000165  -0.012733  -0.000510  -0.000205
              25         26
     1  O    0.009199   0.000016
     2  C   -0.016180   0.000709
     3  C    0.014698   0.007274
     4  C    0.000583  -0.039089
     5  C    0.000132   0.002271
     6  C   -0.000013  -0.006445
     7  C    0.000030   0.000456
     8  C   -0.000412  -0.001017
     9  O   -0.000004   0.000009
    10  C    0.006056  -0.015344
    11  C   -0.000651   0.012744
    12  C    0.310970   0.002437
    13  O   -0.017458  -0.020716
    14  C    0.002349   0.360460
    15  H   -0.000572  -0.000367
    16  H   -0.000004  -0.000361
    17  H    0.000001   0.004764
    18  H    0.000001   0.000648
    19  H    0.000000  -0.000013
    20  H   -0.000000  -0.000000
    21  H    0.000008   0.000165
    22  H    0.000269  -0.012733
    23  H    0.006122  -0.000510
    24  H   -0.015452  -0.000205
    25  H    0.698618  -0.000411
    26  H   -0.000411   0.704151
 Mulliken charges:
               1
     1  O   -0.183502
     2  C    0.106025
     3  C   -0.065463
     4  C   -0.102436
     5  C    0.159400
     6  C   -0.025087
     7  C    0.112213
     8  C   -0.007916
     9  O   -0.185268
    10  C   -0.046485
    11  C    0.099622
    12  C    0.128075
    13  O   -0.340224
    14  C    0.213240
    15  H   -0.021283
    16  H   -0.001882
    17  H    0.022415
    18  H    0.011560
    19  H    0.020788
    20  H    0.009709
    21  H    0.020105
    22  H    0.022837
    23  H    0.022425
    24  H    0.027901
    25  H    0.002124
    26  H    0.001107
 Sum of Mulliken charges =  -0.00000
 Mulliken charges with hydrogens summed into heavy atoms:
               1
     1  O   -0.183502
     2  C    0.106025
     3  C   -0.086747
     4  C   -0.102436
     5  C    0.179933
     6  C    0.007261
     7  C    0.142027
     8  C   -0.007916
     9  O   -0.185268
    10  C   -0.023648
    11  C    0.149947
    12  C    0.130199
    13  O   -0.340224
    14  C    0.214347
 Electronic spatial extent (au):  <R**2>=           2277.1872
 Charge=             -0.0000 electrons
 Dipole moment (field-independent basis, Debye):
    X=              2.6733    Y=              2.2633    Z=              1.1619  Tot=              3.6904
 Quadrupole moment (field-independent basis, Debye-Ang):
   XX=            -95.6986   YY=            -80.8604   ZZ=            -83.9478
   XY=             10.8875   XZ=             -1.2762   YZ=             -1.6380
 Traceless Quadrupole moment (field-independent basis, Debye-Ang):
   XX=             -8.8630   YY=              5.9752   ZZ=              2.8878
   XY=             10.8875   XZ=             -1.2762   YZ=             -1.6380
 Octapole moment (field-independent basis, Debye-Ang**2):
  XXX=             25.8765  YYY=              6.4404  ZZZ=             -1.0131  XYY=            -19.5914
  XXY=             12.0511  XXZ=             22.5536  XZZ=             15.4426  YZZ=             -0.0965
  YYZ=              3.6811  XYZ=             -5.6913
 Hexadecapole moment (field-independent basis, Debye-Ang**3):
 XXXX=          -1746.7222 YYYY=           -898.8946 ZZZZ=           -425.4688 XXXY=             61.5296
 XXXZ=            -68.9352 YYYX=             37.2344 YYYZ=            -17.5164 ZZZX=              5.4665
 ZZZY=              6.4377 XXYY=           -442.8475 XXZZ=           -372.5007 YYZZ=           -214.4505
 XXYZ=            -12.9088 YYXZ=             13.1837 ZZXY=             -1.5371
 N-N= 9.420746705165D+02 E-N=-3.400905151275D+03  KE= 6.455521345287D+02
 No NMR shielding tensors so no spin-rotation constants.
 Leave Link  601 at Wed Jan 14 09:42:47 2026, MaxMem=  4294967296 cpu:               1.0 elap:               0.1
 (Enter /root//g16/l701.exe)
 ... and contract with generalized density number  0.
 Compute integral first derivatives.
 R6Disp: Adding Grimme-D3(BJ) dispersion energy 1st derivatives to the gradient.
   1 Symmetry operations used in ECPInt.
 ECPInt:  NShTT=    7260 NPrTT=   26324 LenC2=    7127 LenP2D=   19929.
 LDataN:  DoStor=T MaxTD1= 5 Len=  102
 Leave Link  701 at Wed Jan 14 09:42:48 2026, MaxMem=  4294967296 cpu:               1.2 elap:               0.1
 (Enter /root//g16/l702.exe)
 L702 exits ... SP integral derivatives will be done elsewhere.
 Leave Link  702 at Wed Jan 14 09:42:48 2026, MaxMem=  4294967296 cpu:               0.1 elap:               0.0
 (Enter /root//g16/l703.exe)
 Integral derivatives from FoFJK, PRISM(SPDF).
 Compute integral first derivatives, UseDBF=F ICtDFT=           0.
 Calling FoFJK, ICntrl=      2127 FMM=F ISym2X=0 I1Cent= 0 IOpClX= 0 NMat=1 NMatS=1 NMatT=0.
 FoFJK:  IHMeth= 1 ICntrl=    2127 DoSepK=F KAlg= 0 I1Cent=           0 FoldK=F
 IRaf=         0 NMat=       1 IRICut=       1 DoRegI=T DoRafI=F ISym2E= 0 IDoP0=0 IntGTp=1.
 FoFCou: FMM=F IPFlag=           0 FMFlag=      100000 FMFlg1=         800
         NFxFlg=           0 DoJE=F BraDBF=F KetDBF=F FulRan=T
         wScrn=  0.000000 ICntrl=      2127 IOpCl=  0 I1Cent=           0 NGrid=           0
         NMat0=    1 NMatS0=      1 NMatT0=    0 NMatD0=    1 NMtDS0=    0 NMtDT0=    0
 Symmetry not used in FoFCou.
 Leave Link  703 at Wed Jan 14 09:42:51 2026, MaxMem=  4294967296 cpu:              49.1 elap:               3.1
 (Enter /root//g16/l716.exe)
 Dipole        = 1.05174070D+00 8.90447098D-01 4.57114010D-01
 ***** Axes restored to original set *****
 -------------------------------------------------------------------
 Center     Atomic                   Forces (Hartrees/Bohr)
 Number     Number              X              Y              Z
 -------------------------------------------------------------------
      1        8          -0.000380119    0.000438119    0.000611274
      2        6           0.010546016   -0.004251748   -0.002661881
      3        6           0.000613728    0.003922843    0.000534778
      4        6          -0.002793790    0.005701657   -0.005653739
      5        6           0.000017013   -0.006162998   -0.000694905
      6        6           0.006354592    0.001346815    0.007134527
      7        6          -0.007039121    0.000224100   -0.001925860
      8        6          -0.001129425   -0.002973917   -0.001698276
      9        8          -0.001256376   -0.003410964    0.000529319
     10        6           0.000419009   -0.001150574   -0.002284100
     11        6           0.001919531    0.003381125   -0.003922155
     12        6           0.002837000   -0.002483467    0.005125308
     13        8          -0.001460921    0.000597889   -0.003886806
     14        6           0.003251235   -0.002918195    0.000459119
     15        1          -0.000983966    0.006504944    0.006843084
     16        1          -0.000372927    0.004910457    0.004335824
     17        1          -0.000994926    0.005131350   -0.005976657
     18        1          -0.003483164   -0.001614631   -0.006725619
     19        1          -0.006744349    0.002281715   -0.000160956
     20        1          -0.002336681   -0.003165237    0.002978233
     21        1           0.003441762    0.002564592    0.005902956
     22        1          -0.001648246   -0.002044858   -0.001855870
     23        1          -0.000075852   -0.001088990    0.006223870
     24        1           0.000598539   -0.006767616    0.000028779
     25        1           0.004861028   -0.000482326    0.000643771
     26        1          -0.004159593    0.001509915   -0.003904017
 -------------------------------------------------------------------
 Cartesian Forces:  Max     0.010546016 RMS     0.003740677
 Leave Link  716 at Wed Jan 14 09:42:51 2026, MaxMem=  4294967296 cpu:               0.1 elap:               0.0
 (Enter /root//g16/l103.exe)

 GradGradGradGradGradGradGradGradGradGradGradGradGradGradGradGradGradGrad
 Berny optimization.
 FormGI is forming the generalized inverse of G from B-inverse, IUseBI=4.
 Internal  Forces:  Max     0.011904145 RMS     0.002825074
 Search for a local minimum.
 Step number   1 out of a maximum of  156
 All quantities printed in internal units (Hartrees-Bohrs-Radians)
 RMS Force = .28251D-02 SwitMx=.10000D-02 MixMth= 1
 Mixed Optimization -- RFO/linear search
 Second derivative matrix not updated -- first step.
 ITU=  0
     Eigenvalues ---    0.00468   0.00506   0.00573   0.00770   0.00841
     Eigenvalues ---    0.01448   0.01863   0.02075   0.02188   0.02950
     Eigenvalues ---    0.03096   0.03417   0.03529   0.04409   0.04636
     Eigenvalues ---    0.04813   0.04950   0.05065   0.05186   0.05472
     Eigenvalues ---    0.05684   0.06139   0.06219   0.06645   0.06867
     Eigenvalues ---    0.07410   0.07679   0.08066   0.08119   0.09020
     Eigenvalues ---    0.09115   0.09613   0.09851   0.10664   0.11534
     Eigenvalues ---    0.12926   0.14580   0.15992   0.18189   0.18651
     Eigenvalues ---    0.21800   0.22691   0.23680   0.24780   0.24996
     Eigenvalues ---    0.25332   0.26495   0.27906   0.28089   0.28852
     Eigenvalues ---    0.29501   0.30367   0.31125   0.32766   0.33357
     Eigenvalues ---    0.34251   0.34495   0.34516   0.34599   0.34709
     Eigenvalues ---    0.34713   0.34725   0.34732   0.34764   0.34827
     Eigenvalues ---    0.35155   0.35932   0.38155   0.38331   0.53409
     Eigenvalues ---    0.97557   0.99936
 RFO step:  Lambda=-5.35626060D-03 EMin= 4.67969917D-03
 Linear search not attempted -- first point.
 Iteration  1 RMS(Cart)=  0.03028810 RMS(Int)=  0.00031933
 Iteration  2 RMS(Cart)=  0.00036377 RMS(Int)=  0.00012538
 Iteration  3 RMS(Cart)=  0.00000012 RMS(Int)=  0.00012538
 ITry= 1 IFail=0 DXMaxC= 1.02D-01 DCOld= 1.00D+10 DXMaxT= 3.00D-01 DXLimC= 3.00D+00 Rises=F
 Variable       Old X    -DE/DX   Delta X   Delta X   Delta X     New X
                                 (Linear)    (Quad)   (Total)
    R1        2.29633   0.00013   0.00000   0.00014   0.00014   2.29647
    R2        2.75874   0.01190   0.00000   0.03255   0.03261   2.79135
    R3        2.88504   0.00299   0.00000   0.01054   0.01051   2.89555
    R4        2.53484   0.01063   0.00000   0.01864   0.01872   2.55356
    R5        2.04188   0.00941   0.00000   0.02580   0.02580   2.06768
    R6        2.81458   0.00589   0.00000   0.01896   0.01901   2.83358
    R7        2.84049   0.00713   0.00000   0.02201   0.02181   2.86231
    R8        2.90167   0.00687   0.00000   0.02447   0.02457   2.92624
    R9        2.06113   0.00647   0.00000   0.01835   0.01835   2.07948
   R10        2.06469   0.00786   0.00000   0.02241   0.02241   2.08710
   R11        2.90262   0.00609   0.00000   0.02036   0.02023   2.92285
   R12        2.06143   0.00732   0.00000   0.02078   0.02078   2.08221
   R13        2.05956   0.00662   0.00000   0.01871   0.01871   2.07828
   R14        2.85568   0.00792   0.00000   0.02361   0.02373   2.87941
   R15        2.06331   0.00433   0.00000   0.01234   0.01234   2.07565
   R16        2.06502   0.00718   0.00000   0.02049   0.02049   2.08551
   R17        2.28665   0.00367   0.00000   0.00365   0.00365   2.29030
   R18        2.86892   0.00709   0.00000   0.02106   0.02112   2.89003
   R19        2.92016   0.00711   0.00000   0.02311   0.02309   2.94326
   R20        2.93155   0.00484   0.00000   0.01520   0.01529   2.94684
   R21        2.06909   0.00287   0.00000   0.00825   0.00825   2.07734
   R22        2.93989   0.00508   0.00000   0.01875   0.01869   2.95858
   R23        2.06150   0.00593   0.00000   0.01681   0.01681   2.07831
   R24        2.05424   0.00655   0.00000   0.01836   0.01836   2.07260
   R25        2.66805   0.00665   0.00000   0.01538   0.01536   2.68341
   R26        2.06060   0.00440   0.00000   0.01248   0.01248   2.07308
   R27        2.67058   0.00333   0.00000   0.00854   0.00847   2.67905
   R28        2.06124   0.00569   0.00000   0.01612   0.01612   2.07736
    A1        2.17406  -0.00139   0.00000  -0.00854  -0.00865   2.16541
    A2        2.14834   0.00024   0.00000  -0.00182  -0.00193   2.14641
    A3        1.95790   0.00110   0.00000   0.00855   0.00847   1.96637
    A4        2.10445  -0.00187   0.00000  -0.00391  -0.00394   2.10050
    A5        2.04719   0.00119   0.00000   0.00318   0.00294   2.05013
    A6        2.13113   0.00066   0.00000  -0.00021  -0.00045   2.13068
    A7        2.16746   0.00185   0.00000   0.00151   0.00143   2.16889
    A8        2.07417  -0.00112   0.00000  -0.00683  -0.00680   2.06737
    A9        2.03928  -0.00079   0.00000   0.00326   0.00286   2.04214
   A10        1.91264   0.00033   0.00000   0.02429   0.02410   1.93674
   A11        1.91275  -0.00020   0.00000  -0.00281  -0.00299   1.90976
   A12        1.91669   0.00024   0.00000  -0.00264  -0.00252   1.91417
   A13        1.92272   0.00037   0.00000  -0.00314  -0.00299   1.91973
   A14        1.91069  -0.00011   0.00000  -0.00257  -0.00278   1.90791
   A15        1.88821  -0.00065   0.00000  -0.01367  -0.01373   1.87448
   A16        1.94983   0.00318   0.00000   0.03060   0.03027   1.98010
   A17        1.93027  -0.00200   0.00000  -0.01399  -0.01395   1.91632
   A18        1.89516   0.00043   0.00000   0.00723   0.00683   1.90199
   A19        1.90800  -0.00041   0.00000  -0.00154  -0.00155   1.90645
   A20        1.90329  -0.00045   0.00000   0.00332   0.00310   1.90639
   A21        1.87558  -0.00088   0.00000  -0.02764  -0.02768   1.84790
   A22        1.98608  -0.00138   0.00000  -0.00036  -0.00069   1.98540
   A23        1.92744   0.00248   0.00000   0.01839   0.01859   1.94603
   A24        1.91585   0.00005   0.00000  -0.00027  -0.00029   1.91557
   A25        1.85767  -0.00053   0.00000  -0.00934  -0.00931   1.84835
   A26        1.89162   0.00030   0.00000   0.00026   0.00040   1.89201
   A27        1.88155  -0.00097   0.00000  -0.00972  -0.00980   1.87175
   A28        2.10987  -0.00027   0.00000  -0.00428  -0.00419   2.10568
   A29        2.10062   0.00080   0.00000   0.00952   0.00934   2.10996
   A30        2.07257  -0.00052   0.00000  -0.00527  -0.00517   2.06740
   A31        1.95106   0.00112   0.00000   0.01338   0.01321   1.96428
   A32        2.11415  -0.00043   0.00000   0.01007   0.00985   2.12400
   A33        1.86346  -0.00092   0.00000  -0.01898  -0.01881   1.84465
   A34        1.76505  -0.00004   0.00000  -0.00091  -0.00087   1.76418
   A35        1.88534   0.00018   0.00000   0.00298   0.00300   1.88834
   A36        1.87386   0.00018   0.00000  -0.00607  -0.00612   1.86773
   A37        1.79131   0.00079   0.00000   0.00275   0.00262   1.79394
   A38        1.95522  -0.00005   0.00000   0.00646   0.00643   1.96165
   A39        1.94716  -0.00071   0.00000  -0.01087  -0.01087   1.93629
   A40        1.93502   0.00013   0.00000   0.00889   0.00882   1.94384
   A41        1.94381   0.00065   0.00000   0.00865   0.00875   1.95256
   A42        1.89104  -0.00072   0.00000  -0.01436  -0.01440   1.87665
   A43        1.87329   0.00389   0.00000   0.02648   0.02625   1.89954
   A44        1.91290  -0.00120   0.00000  -0.01410  -0.01397   1.89893
   A45        1.94331  -0.00197   0.00000  -0.01490  -0.01495   1.92835
   A46        1.84328  -0.00249   0.00000  -0.01305  -0.01287   1.83041
   A47        1.98565   0.00003   0.00000   0.00422   0.00436   1.99001
   A48        1.90207   0.00166   0.00000   0.01067   0.01053   1.91260
   A49        1.80416   0.00212   0.00000   0.00892   0.00882   1.81298
   A50        1.93753   0.00294   0.00000   0.01700   0.01680   1.95433
   A51        1.92350   0.00009   0.00000   0.00366   0.00377   1.92727
   A52        1.95327  -0.00166   0.00000  -0.01343  -0.01340   1.93987
   A53        1.78522  -0.00116   0.00000  -0.00713  -0.00712   1.77810
   A54        1.97611  -0.00142   0.00000  -0.00879  -0.00867   1.96744
   A55        1.87977   0.00127   0.00000   0.00963   0.00960   1.88938
    D1       -3.09289   0.00005   0.00000   0.01744   0.01747  -3.07542
    D2        0.01819  -0.00074   0.00000  -0.01636  -0.01638   0.00180
    D3       -0.03095  -0.00063   0.00000  -0.00754  -0.00751  -0.03846
    D4        3.08013  -0.00142   0.00000  -0.04135  -0.04137   3.03876
    D5        1.78320   0.00053   0.00000  -0.01165  -0.01164   1.77156
    D6       -2.50630  -0.00093   0.00000  -0.02000  -0.02012  -2.52642
    D7       -0.40052  -0.00092   0.00000  -0.02564  -0.02551  -0.42603
    D8       -1.28011   0.00129   0.00000   0.01328   0.01339  -1.26672
    D9        0.71358  -0.00018   0.00000   0.00492   0.00491   0.71849
   D10        2.81936  -0.00017   0.00000  -0.00072  -0.00048   2.81888
   D11        3.00188  -0.00130   0.00000  -0.03573  -0.03576   2.96612
   D12       -0.06503  -0.00024   0.00000  -0.00214  -0.00215  -0.06718
   D13       -0.10770  -0.00048   0.00000  -0.00032  -0.00036  -0.10806
   D14        3.10858   0.00058   0.00000   0.03326   0.03325  -3.14136
[...]
 52,-0.00041447,-0.00116893,-0.00006198,0.00035501,0.00011680,0.0000245
 3,-0.00031340,-0.00008770,-0.00002472,0.00003593,0.00003199,-0.0000032
 0,-0.00008974,0.00002177,0.00006678,0.00016466,0.00023767,0.00025294,-
 0.00014265,-0.00036895,-0.00010538,-0.00012418,0.00011068,0.00096208,0
 .00042358,-0.00046080,0.00022373,-0.00012451,0.00019930,0.00674792,-0.
 00374606,-0.00235841,0.23832115,-0.00044789,0.00016680,0.00004455,0.00
 075671,-0.00046564,-0.00071943,-0.00101260,0.00119672,-0.00025267,-0.0
 0219642,-0.00372629,0.00099726,-0.02145032,0.00975657,0.00718228,0.108
 20079,-0.10765977,-0.04423840,0.01785454,-0.01468618,-0.00621379,-0.00
 014538,0.00035253,0.00543488,-0.00024415,-0.00174906,-0.00121914,-0.00
 013959,0.00025389,-0.00041493,-0.00025536,0.00006486,-0.00005488,-0.00
 003056,-0.00013492,0.00004573,0.00025216,0.00038768,0.00017640,-0.0000
 6063,-0.00041765,-0.00033900,-0.00007063,-0.00013782,0.00013298,0.0000
 4439,0.00126197,0.00004214,0.00071649,0.00031630,0.00008378,0.00985096
 ,-0.00607800,-0.00416608,-0.11170651,0.12043821,0.00012867,-0.00003198
 ,0.00006234,-0.00016101,0.00011893,0.00000488,0.00022303,-0.00005358,-
 0.00013769,-0.00020099,0.00031160,0.00043427,0.00049951,-0.00222753,-0
 .00058193,0.07302208,-0.04435603,-0.07527314,-0.01827037,0.01442616,0.
 00677481,-0.00067237,0.00007692,-0.00438239,0.00043387,0.00167396,0.00
 094226,0.00004083,0.00014712,0.00039023,0.00005784,-0.00008235,0.00002
 229,0.00004401,0.00009805,-0.00013090,0.00013939,-0.00022510,0.0002805
 5,-0.00043120,0.00044498,-0.00031033,-0.00001159,-0.00000768,0.0000132
 0,-0.00053025,0.00036822,0.00101708,0.00007368,-0.00010559,-0.00021841
 ,0.02305159,-0.01344112,-0.00941940,-0.07727676,0.04354307,0.07863997,
 -0.00010928,-0.00001365,-0.00010929,0.00018707,0.00000177,0.00013258,0
 .00011527,-0.00015767,0.00031691,-0.00044115,0.00011985,-0.00013234,0.
 00015738,0.00138658,-0.00134432,0.00900661,0.00496923,-0.00451040,-0.2
 3815244,-0.08010802,0.09678181,-0.01600384,-0.00641948,0.00785603,0.00
 322353,-0.00110458,-0.00266987,0.00103104,0.00236691,0.00121376,0.0003
 1718,0.00008434,0.00004608,0.00008125,-0.00004820,-0.00001694,-0.00010
 771,-0.00014930,-0.00001508,0.00029259,0.00020866,-0.00035613,0.000003
 17,0.00002085,-0.00002730,-0.00000647,0.00005629,0.00000123,0.00031529
 ,0.00039376,-0.00015675,-0.00006434,-0.00033415,0.00000265,0.00141068,
 0.00000180,-0.00000729,0.25304643,-0.00015811,0.00011087,-0.00002069,0
 .00028545,-0.00033566,-0.00010685,-0.00022852,0.00025934,0.00006214,0.
 00094973,-0.00044218,-0.00000703,0.00113548,-0.00196593,0.00395643,-0.
 01761114,-0.00922842,0.00755536,-0.08361883,-0.07891213,0.04351203,0.0
 2556172,0.00714843,-0.01298552,-0.00099720,0.00164470,0.00075116,0.000
 33540,-0.00409332,-0.00183468,-0.00013225,0.00000995,-0.00014308,-0.00
 000953,-0.00006232,0.00004498,0.00000011,0.00024566,0.00005540,-0.0003
 0907,-0.00030252,0.00016443,0.00001401,0.00002166,0.00004051,0.0000300
 9,0.00012859,-0.00010079,-0.00098123,-0.00095398,0.00021501,0.00011091
 ,0.00008534,0.00032049,-0.00047563,0.00043250,-0.00019980,0.08336710,0
 .08942840,0.00000566,0.00003216,0.00001288,0.00008175,-0.00008409,-0.0
 0001682,0.00011779,-0.00012699,0.00046741,-0.00102050,-0.00031202,-0.0
 0011693,-0.00154461,0.00118539,-0.00211052,0.01544811,0.00656582,-0.00
 684313,0.09552710,0.04132503,-0.09619514,0.01722978,0.00406957,-0.0093
 1337,-0.00337470,0.00230862,0.00078382,0.00056368,-0.00246124,0.000311
 47,0.00025085,-0.00000614,-0.00028153,0.00002991,-0.00003572,-0.000036
 79,0.00011681,0.00000105,0.00004149,-0.00035167,-0.00009446,0.00013394
 ,0.00002108,0.00005830,-0.00000270,0.00003085,0.00017679,0.00002001,0.
 00060285,0.00062534,0.00005251,-0.00004725,-0.00012050,-0.00042920,-0.
 00000893,-0.00031425,0.00125913,-0.10503739,-0.04557462,0.10142074,0.0
 0016694,-0.00002267,0.00001914,-0.00024787,0.00011136,0.00014769,-0.00
 028345,-0.00040302,0.00010254,-0.00021884,-0.00077723,0.00114302,-0.00
 008693,-0.00082585,0.00122005,-0.00259130,-0.00240664,-0.00502598,-0.1
 3737976,-0.05315763,-0.10792941,0.01291205,0.00196129,0.01150790,-0.00
 120062,0.00264583,-0.00173918,-0.00170015,-0.00067144,-0.00219082,-0.0
 0036458,0.00018215,0.00057467,-0.00018184,0.00020468,-0.00008901,0.000
 07260,-0.00009370,0.00000771,-0.00005256,0.00019338,0.00010295,0.00003
 278,0.00000119,-0.00001217,0.00030017,0.00036020,-0.00008773,-0.000124
 13,0.00009575,0.00001511,-0.00009110,0.00090212,0.00002447,-0.00022774
 ,-0.00002329,-0.00008060,-0.01359833,-0.00830744,-0.01926249,0.1446961
 9,0.00008838,-0.00005281,0.00005883,-0.00011382,0.00011102,-0.00004912
 ,-0.00010429,-0.00009877,0.00026884,-0.00083687,-0.00036826,0.00047329
 ,-0.00008939,0.00181178,0.00053983,0.01373647,0.00852757,0.02055349,-0
 .05747556,-0.07560103,-0.07426849,-0.01979571,-0.00906848,-0.01644240,
 0.00506116,-0.00403612,0.00133846,0.00161927,0.00031531,0.00160842,0.0
 0026817,-0.00001601,-0.00069991,0.00015901,0.00002337,0.00001087,0.000
 10101,-0.00012192,-0.00000021,0.00004495,-0.00001876,0.00019088,-0.000
 04275,-0.00003265,-0.00002130,0.00017641,-0.00026106,-0.00040976,0.000
 28322,0.00024043,-0.00023011,0.00128978,-0.00347369,0.00299543,0.00001
 943,0.00030520,-0.00037459,-0.00452270,-0.00339453,-0.00709545,0.06016
 906,0.08529362,-0.00029876,0.00011532,-0.00014440,0.00064545,-0.000424
 45,0.00003655,-0.00009080,-0.00000114,0.00062928,-0.00006304,-0.000108
 10,-0.00042477,-0.00066028,-0.00097623,0.00116756,-0.01092763,-0.00517
 884,-0.01755090,-0.10954566,-0.06863864,-0.17803116,-0.00991717,-0.003
 90766,-0.00912325,0.00142497,-0.00106835,0.00006801,0.00124493,0.00005
 831,0.00102869,0.00016765,0.00010943,-0.00044082,0.00009514,-0.0000522
 6,-0.00000793,0.00007052,0.00013385,0.00014627,-0.00016685,-0.00022032
 ,-0.00038650,0.00003192,0.00008762,0.00000729,0.00037010,0.00055848,-0
 .00006634,-0.00020168,-0.00025461,0.00031571,-0.00143940,0.00354913,-0
 .00171969,-0.00000127,0.00018619,0.00009957,0.00758979,0.00494215,0.01
 091644,0.12184635,0.07107370,0.19282550,-0.00008779,-0.00008713,-0.000
 04172,-0.00004638,0.00033623,-0.00001086,0.00011974,0.00021979,-0.0000
 9708,0.00015327,-0.00022922,0.00048010,-0.00002265,-0.00016842,-0.0000
 9687,0.00011285,-0.00013576,0.00013097,-0.00394254,-0.00206405,0.00130
 093,-0.00216407,0.01941741,0.02377223,0.00128960,0.00086595,-0.0030276
 4,-0.04253052,-0.01649396,-0.01231793,-0.00514093,-0.01448393,-0.02086
 657,-0.00064594,0.00048681,-0.00151306,0.00107600,-0.00017146,0.001123
 71,-0.00054405,-0.00300089,-0.00297271,-0.00001278,-0.00003517,0.00005
 408,0.00002037,-0.00001284,-0.00001348,0.00005040,0.00003366,-0.000014
 22,-0.00002977,0.00011112,-0.00011501,0.00003271,0.00006202,-0.0000771
 1,-0.00071985,0.00100400,0.00045958,0.00036433,-0.00026030,-0.00021645
 ,0.05488765,-0.00061923,0.00041820,-0.00016586,0.00108981,-0.00142576,
 0.00013638,-0.00052889,-0.00014266,-0.00051319,-0.00214798,-0.00246243
 ,0.00416321,-0.00021970,0.00005536,-0.00033860,-0.00026749,-0.00004507
 ,-0.00013267,-0.00003770,0.00038013,0.00011818,0.00207572,0.00033536,0
 .00005717,-0.00182650,0.00019699,0.00203472,-0.01823372,-0.17114664,-0
 .13755789,0.00370781,0.00482009,0.00779192,-0.00019974,-0.00018433,-0.
 00004285,0.00142007,0.00296640,0.00050842,-0.00147903,-0.02404198,-0.0
 1873795,0.00007785,0.00033695,-0.00049449,0.00016229,-0.00001686,-0.00
 006701,0.00000407,0.00001250,0.00001543,0.00006406,0.00003328,0.000083
 32,0.00007099,0.00009027,0.00000749,0.00000015,0.00008089,-0.00014306,
 -0.00012736,-0.00002415,0.00005256,0.01487819,0.18704422,0.00042426,-0
 .00023772,0.00022716,-0.00067616,0.00092479,-0.00020418,0.00053816,0.0
 0023174,0.00090936,0.00175025,0.00145013,-0.00189424,0.00014846,-0.000
 11211,0.00019135,0.00002490,0.00014289,-0.00022298,0.00234067,0.001738
 50,-0.00058586,-0.00086422,-0.01548414,-0.01387922,-0.00061133,0.00154
 903,0.00297983,-0.01252555,-0.13686004,-0.18945715,-0.00372096,-0.0081
 7594,-0.01260520,-0.00008334,0.00037767,-0.00085626,-0.00129776,-0.000
 32962,0.00063381,0.00202600,0.01451777,0.00978806,-0.00003047,-0.00019
 378,0.00034649,-0.00006391,0.00001040,0.00005394,-0.00000025,-0.000051
 15,0.00000466,0.00001440,-0.00007139,0.00008126,-0.00004189,-0.0000978
 7,0.00009419,0.00044214,-0.00068759,-0.00024444,-0.00023378,0.00027528
 ,0.00014287,0.01539506,0.14140800,0.20261279,-0.00058602,0.00045478,-0
 .00084011,0.00226640,-0.00031437,0.00185275,-0.00063390,0.00008792,-0.
 00028384,0.00046630,0.00033003,0.00026188,0.00003650,-0.00003873,-0.00
 004846,0.00004727,0.00010469,-0.00013654,-0.00025772,-0.00008061,-0.00
 020698,0.00143557,-0.00006005,-0.00198423,-0.00011621,-0.00044992,0.00
 054243,0.00178668,-0.00565326,-0.02570675,-0.04948871,0.00562835,0.031
 61744,-0.00138202,0.00443736,0.01823387,-0.00117806,-0.00292163,0.0023
 2897,-0.00193988,0.00000877,-0.00079841,0.00006756,-0.00008728,0.00004
 637,0.00000450,-0.00000351,0.00000831,-0.00003000,-0.00002036,-0.00000
 507,0.00002892,-0.00001684,0.00006118,0.00000690,-0.00003520,0.0000493
 9,0.00005639,0.00000228,0.00008295,-0.00005266,0.00022708,0.00011243,-
 0.00352984,0.00154655,-0.00280118,0.05464572,0.00017964,-0.00004781,0.
 00000118,-0.00084754,-0.00042336,0.00156518,-0.00003223,-0.00038635,0.
 00000254,0.00030486,0.00011867,-0.00000667,-0.00007919,-0.00008745,-0.
 00012028,0.00001301,0.00002877,0.00002219,-0.00018271,-0.00016762,0.00
 019428,-0.00005065,0.00177018,-0.00015180,0.00021692,-0.00052225,0.000
 24972,-0.00245434,-0.00030345,0.00406031,0.00589179,-0.05326934,-0.042
 34952,-0.00012366,0.00409310,0.01816518,-0.00050509,-0.00464347,0.0045
 3102,-0.00126281,0.00018611,0.00112137,0.00000731,0.00004452,-0.000027
 23,0.00002047,-0.00002225,-0.00000101,-0.00005623,0.00003746,0.0000064
 1,-0.00002372,0.00000040,-0.00002666,-0.00002800,-0.00001374,-0.000007
 55,-0.00013132,0.00004696,-0.00003656,0.00016547,-0.00011168,-0.000133
 98,-0.00025070,0.00037811,0.00007541,-0.00346869,0.05674000,0.00071501
 ,0.00007520,0.00115888,-0.00111500,-0.00101811,-0.00165108,0.00043585,
 0.00007418,0.00084177,-0.00050004,-0.00048333,-0.00032661,0.00008137,0
 .00006392,0.00010631,0.00000277,0.00000390,-0.00003296,-0.00059954,-0.
 00028823,-0.00010828,0.00168334,0.00145924,-0.00089712,-0.00036169,-0.
 00087672,0.00066881,-0.00001643,-0.00291493,-0.00890003,0.03130362,-0.
 04027185,-0.30601093,0.00023478,-0.00143913,-0.00599139,-0.00009227,0.
 00221882,-0.00110167,0.00101558,-0.00034805,-0.00079404,-0.00000937,0.
 00008484,0.00001106,-0.00002362,0.00003332,0.00000767,0.00006354,-0.00
 004632,0.00001220,0.00005487,-0.00002419,0.00006353,0.00002786,0.00001
 579,0.00002089,-0.00005986,0.00008223,0.00007421,0.00002641,0.00012854
 ,0.00016880,-0.00138132,0.00101438,-0.00047331,-0.03226566,0.04174460,
 0.32732861,-0.00041934,-0.00039692,-0.00155726,-0.00223486,-0.00010334
 ,0.00404265,0.00098559,-0.00000510,-0.00032187,-0.00031032,-0.00082803
 ,-0.00070017,-0.00003001,-0.00014975,0.00018457,-0.00004059,-0.0001791
 2,0.00000176,0.00018692,0.00010771,0.00061927,0.00131844,0.00259024,-0
 .00222388,0.00002290,-0.00173417,0.00021292,-0.01109007,0.02386778,0.0
 0134448,-0.06628005,0.08019973,0.01549111,0.00370415,-0.02429413,-0.00
 535466,0.00153586,0.00006394,0.00142456,-0.00475878,0.00014084,-0.0010
 1654,0.00016940,-0.00003529,-0.00006352,-0.00001210,0.00001420,0.00001
 968,0.00008894,-0.00003742,0.00000811,0.00006662,-0.00000664,0.0000203
 9,0.00001132,0.00003300,0.00002161,-0.00003140,0.00002212,0.00005688,-
 0.00013431,0.00001373,-0.00000301,0.00138215,-0.00003073,0.00034586,-0
 .00081619,0.00339753,0.00056584,0.07526952,-0.00021383,-0.00046758,-0.
 00103326,-0.00213317,0.00072611,0.00288048,0.00052458,0.00016605,-0.00
 004142,-0.00018091,0.00014790,-0.00014731,0.00001083,-0.00008134,0.000
 16087,-0.00007306,-0.00007062,0.00000472,0.00003910,0.00009575,0.00012
 359,0.00018295,-0.00007945,0.00034019,-0.00004415,0.00008567,-0.000188
 94,-0.00084051,-0.00032897,-0.00100415,0.08115238,-0.29532035,-0.04111
 154,0.00393670,-0.01622252,-0.00489565,0.00101692,0.00029712,0.0012572
 7,-0.00063715,-0.00007991,0.00046067,0.00006032,-0.00000714,-0.0000547
 4,0.00000704,-0.00000141,-0.00000573,0.00006530,-0.00001280,-0.0000231
 3,0.00000282,0.00000616,0.00000273,0.00001404,0.00002702,-0.00000635,0
 .00000778,0.00001033,-0.00000082,-0.00006126,0.00002530,0.00003112,-0.
 00022279,0.00130124,-0.00003258,0.00089832,-0.00265320,-0.00023700,-0.
 08353086,0.31127213,0.00032795,0.00013660,0.00082859,0.00063890,0.0004
 4325,-0.00165861,0.00018724,-0.00036218,0.00069797,-0.00037450,-0.0005
 9791,-0.00068318,-0.00000272,0.00005961,-0.00002378,0.00004945,-0.0000
 5240,-0.00000033,-0.00009855,-0.00006469,0.00013594,-0.00020016,0.0004
 0851,-0.00098890,-0.00014319,-0.00002181,-0.00005286,-0.00712875,0.014
 65918,0.00023944,0.01583586,-0.04349739,-0.05232049,-0.00395870,0.0124
 2218,0.00301620,0.00018093,-0.00046577,-0.00096022,-0.00222442,0.00144
 811,-0.00154830,0.00000600,0.00006991,-0.00001898,-0.00000660,0.000008
 31,0.00001019,0.00001866,-0.00002238,0.00002945,0.00004342,-0.00002169
 ,0.00004092,0.00001379,0.00000514,0.00002779,0.00001588,0.00001454,0.0
 0007400,-0.00006954,0.00014670,0.00014958,-0.00037833,0.00099366,0.001
 07251,0.00965551,-0.02931284,-0.00377831,-0.01228390,0.04342372,0.0555
 6689,0.00157055,-0.00013347,0.00101344,0.00228957,-0.00213080,-0.00188
 482,0.00037659,-0.00077413,-0.00054562,-0.00014960,-0.00021871,-0.0001
 1775,-0.00002768,-0.00001490,0.00021336,0.00000359,-0.00001882,-0.0000
 0004,0.00000895,0.00002715,0.00006233,0.00005728,-0.00009487,-0.000540
 90,-0.00019174,-0.00013171,0.00019471,-0.00092948,-0.00010659,0.000557
 96,-0.00985650,0.00520718,0.00377053,-0.27147917,0.09731023,0.05431634
 ,-0.01227956,0.00436282,-0.00328434,0.00113553,0.00104356,-0.00198522,
 0.00020380,-0.00017512,0.00006110,-0.00003894,0.00003616,0.00003340,0.
 00004199,-0.00002894,-0.00000260,0.00002618,-0.00000057,0.00000615,-0.
 00000523,0.00000928,0.00000573,-0.00000875,0.00000380,0.00000850,-0.00
 000484,0.00000292,-0.00000268,-0.00012523,-0.00000015,-0.00005966,-0.0
 0113779,-0.00075799,0.00021640,0.00097808,0.00006143,-0.00035041,0.290
 05875,-0.00258975,0.00267789,0.00304391,0.02623756,-0.01051034,-0.0063
 5891,-0.00141785,-0.00335453,-0.00297918,-0.00044459,0.00040448,-0.000
 32215,0.00002267,0.00009981,-0.00002332,-0.00000177,-0.00013295,0.0001
 0390,0.00002809,0.00010388,0.00021172,0.00021117,0.00005605,-0.0011693
 4,-0.00021762,-0.00023543,0.00027720,-0.00349310,-0.00095014,0.0010740
 5,-0.01854860,0.00808359,0.00417139,0.09542473,-0.08717622,-0.02477010
 ,0.00988912,-0.00285456,0.00196154,-0.00162153,-0.00102066,0.00184594,
 0.00081634,-0.00091954,0.00032406,-0.00003383,0.00000130,-0.00000257,0
 .00003446,0.00000089,0.00001709,0.00002650,0.00000317,-0.00001905,0.00
 002352,0.00004696,-0.00001842,0.00000142,0.00002877,0.00001460,-0.0000
 6999,0.00001088,0.00003822,-0.00017461,0.00005365,-0.00011687,-0.00098
 247,-0.00053924,0.00068687,0.00022229,0.00136290,-0.00033024,-0.103690
 14,0.09466428,-0.00148632,0.00230103,0.00132011,0.01921915,-0.00697496
 ,-0.00096199,-0.00104609,-0.00310062,-0.00181778,-0.00090337,-0.000170
 45,-0.00044830,0.00011829,0.00022141,0.00018957,-0.00001191,0.00001354
 ,-0.00007149,-0.00001878,-0.00003095,-0.00014940,0.00010721,-0.0001552
 3,0.00049629,-0.00002719,0.00002521,-0.00008346,0.00112583,0.00085309,
 -0.00123743,0.00891888,-0.00413012,0.00016598,0.06315250,-0.02780024,-
 0.06270563,-0.03494656,0.01354090,0.00298412,-0.00146588,0.00283537,-0
 .00535156,0.00074346,-0.00062236,0.00024222,-0.00009825,0.00007679,0.0
 0004556,0.00004831,-0.00006061,0.00000491,0.00005045,0.00002674,0.0000
 4133,0.00002153,0.00001960,0.00003489,0.00000447,-0.00000606,-0.000003
 76,0.00002471,-0.00000692,0.00001413,0.00005460,0.00004815,0.00004601,
 0.00031924,0.00040246,-0.00034832,-0.00051511,-0.00001128,0.00047015,-
 0.05187485,0.02253145,0.06669942,0.00001210,-0.00075099,-0.00033326,-0
 .00051969,0.00157151,0.00051886,0.00120139,0.00095819,0.00056666,0.002
 85244,-0.00204450,0.00023206,0.00006444,-0.00009245,0.00082642,-0.0001
 9755,0.00001071,0.00022022,0.00001004,-0.00002948,0.00006974,0.0001028
 8,0.00030762,-0.00012955,0.00002053,-0.00006067,-0.00012975,0.00729952
 ,-0.00156603,0.00810305,-0.00100794,-0.00225209,0.00108087,-0.00512910
 ,-0.00070602,0.00305374,-0.02696508,0.00972546,-0.02698171,-0.11240636
 ,0.02052641,-0.10892833,0.00032210,0.00009869,-0.00010818,-0.00004133,
 -0.00015818,-0.00000142,0.00025657,-0.00007407,0.00001436,-0.00052792,
 0.00019608,0.00053037,0.00001488,0.00003639,-0.00007167,-0.00000033,0.
 00000677,0.00001341,-0.00000405,-0.00001869,-0.00006458,0.00005324,0.0
 0062067,-0.00043970,0.00030027,0.00005787,-0.00000245,0.00043813,-0.00
 004282,0.00024618,-0.00051638,0.00034798,-0.00151434,0.13436721,-0.000
 29581,0.00038230,0.00020504,0.00136959,-0.00034512,-0.00041215,0.00143
 154,-0.00331847,-0.00174891,-0.01326853,0.00337960,-0.02382842,-0.0005
 4823,0.00108301,0.00025767,0.00034496,0.00004225,0.00017579,-0.0001133
 7,0.00001072,0.00023051,0.00118976,-0.00031319,0.00004321,-0.00058589,
 -0.00034158,-0.00014310,0.01191775,-0.00322498,0.02032778,0.00022507,-
 0.00309204,0.00215558,0.00051578,-0.00045857,0.00071721,0.00261246,-0.
 00060950,0.00324644,0.02157796,-0.05226990,0.03191607,-0.00136781,-0.0
 0089031,0.00028214,-0.00024048,-0.00000212,0.00034987,0.00025224,-0.00
 045261,0.00023166,0.00004646,0.00007490,-0.00026586,-0.00000635,-0.000
 02843,-0.00007883,0.00000257,0.00000858,0.00004324,-0.00004494,0.00001
 543,0.00002851,0.00037604,0.00098625,-0.00025080,0.00040680,-0.0002530
 5,0.00026204,0.00065841,-0.00019838,0.00050988,0.00021238,0.00009509,0
 .00017404,-0.02666836,0.05972013,-0.00040485,0.00023185,-0.00015083,0.
 00119372,-0.00034404,0.00000037,0.00155110,-0.00212326,-0.00141580,-0.
 01049674,0.00215059,-0.01584047,-0.00072357,0.00028702,0.00048376,-0.0
 0036611,0.00009473,-0.00041102,0.00003614,0.00004837,-0.00023102,-0.00
 083302,0.00047099,0.00032552,0.00045599,0.00007938,-0.00010450,-0.0055
 5699,0.00054323,-0.00816114,0.00068811,0.00158036,0.00008193,0.0026853
 4,-0.00066737,0.00066130,0.00648401,-0.00156802,0.01242193,-0.11842661
 ,0.03499883,-0.24500072,-0.00094241,-0.00060383,0.00020429,-0.00002650
 ,-0.00005315,0.00031363,0.00050054,-0.00062029,0.00006785,0.00072677,0
 .00020749,0.00027351,0.00008571,0.00012065,0.00033583,0.00003965,-0.00
 005017,0.00002628,-0.00004201,-0.00006427,0.00017953,0.00036910,-0.000
 23942,0.00123857,-0.00009549,0.00003226,-0.00004871,-0.00031978,0.0001
 0852,-0.00032564,0.00018895,-0.00019179,0.00042439,0.12322896,-0.03442
 865,0.25465117\\0.00000665,-0.00000439,0.00000577,-0.00000735,-0.00002
 313,0.00002456,-0.00001121,0.00003821,0.00000274,0.00000915,-0.0000192
 7,-0.00001431,-0.00002758,-0.00001808,-0.00001068,0.00002303,0.0000076
 7,0.00002150,-0.00000555,0.00002825,-0.00000877,-0.00001633,-0.0000265
 6,0.00001375,0.00000528,0.00001254,0.00000094,0.00001998,-0.00000203,-
 0.00000112,-0.00003995,-0.00001813,0.00001906,-0.00001982,0.00006252,-
 0.00009568,0.00004184,-0.00003088,0.00005675,-0.00000267,0.00000967,0.
 00000296,0.00000936,-0.00001535,-0.00001781,-0.00000691,-0.00000451,-0
 .00001090,0.00000931,0.00000590,0.00001821,-0.00000163,0.00000709,0.00
 000987,-0.00000122,-0.00000340,-0.00001200,0.00001206,-0.00000220,0.00
 000071,-0.00001480,-0.00001643,-0.00001110,0.00000046,0.00000034,0.000
 00980,0.00000426,-0.00000490,-0.00001969,0.00000571,0.00001794,0.00000
 217,-0.00000147,-0.00000261,0.00000092,0.00000937,0.00000172,0.0000123
 3\\\@


 EVERYBODY NEEDS BEAUTY AS WELL AS BREAD, PLACES TO PLAY IN AND PRAY IN,
 WHERE NATURE MAY HEAL AND CHEER AND GIVE STRENGTH TO BODY AND SOUL ALIKE.

                                    -- JOHN MUIR
 Job cpu time:       0 days  0 hours 24 minutes 32.5 seconds.
 Elapsed time:       0 days  0 hours  1 minutes 32.4 seconds.
 File lengths (MBytes):  RWF=    198 Int=      0 D2E=      0 Chk=      7 Scr=      1
 Normal termination of Gaussian 16 at Wed Jan 14 09:45:42 2026.
