
                                 *****************
                                 * O   R   C   A *
                                 *****************

                                            #,                                       
                                            ###                                      
                                            ####                                     
                                            #####                                    
                                            ######                                   
                                           ########,                                 
                                     ,,################,,,,,                         
                               ,,#################################,,                 
                          ,,##########################################,,             
                       ,#########################################, ''#####,          
                    ,#############################################,,   '####,        
                  ,##################################################,,,,####,       
                ,###########''''           ''''###############################       
              ,#####''   ,,,,##########,,,,          '''####'''          '####       
            ,##' ,,,,###########################,,,                        '##       
           ' ,,###''''                  '''############,,,                           
         ,,##''                                '''############,,,,        ,,,,,,###''
      ,#''                                            '''#######################'''  
     '                                                          ''''####''''         
             ,#######,   #######,   ,#######,      ##                                
            ,#'     '#,  ##    ##  ,#'     '#,    #''#        ######   ,####,        
            ##       ##  ##   ,#'  ##            #'  '#       #        #'  '#        
            ##       ##  #######   ##           ,######,      #####,   #    #        
            '#,     ,#'  ##    ##  '#,     ,#' ,#      #,         ##   #,  ,#        
             '#######'   ##     ##  '#######'  #'      '#     #####' # '####'        



                  #######################################################
                  #                        -***-                        #
                  #          Department of theory and spectroscopy      #
                  #    Directorship and core code : Frank Neese         #
                  #        Max Planck Institute fuer Kohlenforschung    #
                  #                Kaiser Wilhelm Platz 1               #
                  #                 D-45470 Muelheim/Ruhr               #
                  #                      Germany                        #
                  #                                                     #
                  #                  All rights reserved                #
                  #                        -***-                        #
                  #######################################################


                         Program Version 5.0.4 -  RELEASE  -


 With contributions from (in alphabetic order):
   Daniel Aravena         : Magnetic Suceptibility
   Michael Atanasov       : Ab Initio Ligand Field Theory (pilot matlab implementation)
   Alexander A. Auer      : GIAO ZORA, VPT2 properties, NMR spectrum
   Ute Becker             : Parallelization
   Giovanni Bistoni       : ED, misc. LED, open-shell LED, HFLD
   Martin Brehm           : Molecular dynamics
   Dmytro Bykov           : SCF Hessian
   Vijay G. Chilkuri      : MRCI spin determinant printing, contributions to CSF-ICE
   Dipayan Datta          : RHF DLPNO-CCSD density
   Achintya Kumar Dutta   : EOM-CC, STEOM-CC
   Dmitry Ganyushin       : Spin-Orbit,Spin-Spin,Magnetic field MRCI
   Miquel Garcia          : C-PCM and meta-GGA Hessian, CC/C-PCM, Gaussian charge scheme
   Yang Guo               : DLPNO-NEVPT2, F12-NEVPT2, CIM, IAO-localization
   Andreas Hansen         : Spin unrestricted coupled pair/coupled cluster methods
   Benjamin Helmich-Paris : MC-RPA, TRAH-SCF, COSX integrals
   Lee Huntington         : MR-EOM, pCC
   Robert Izsak           : Overlap fitted RIJCOSX, COSX-SCS-MP3, EOM
   Marcus Kettner         : VPT2
   Christian Kollmar      : KDIIS, OOCD, Brueckner-CCSD(T), CCSD density, CASPT2, CASPT2-K
   Simone Kossmann        : Meta GGA functionals, TD-DFT gradient, OOMP2, MP2 Hessian
   Martin Krupicka        : Initial AUTO-CI
   Lucas Lang             : DCDCAS
   Marvin Lechner         : AUTO-CI (C++ implementation), FIC-MRCC
   Dagmar Lenk            : GEPOL surface, SMD
   Dimitrios Liakos       : Extrapolation schemes; Compound Job, initial MDCI parallelization
   Dimitrios Manganas     : Further ROCIS development; embedding schemes
   Dimitrios Pantazis     : SARC Basis sets
   Anastasios Papadopoulos: AUTO-CI, single reference methods and gradients
   Taras Petrenko         : DFT Hessian,TD-DFT gradient, ASA, ECA, R-Raman, ABS, FL, XAS/XES, NRVS
   Peter Pinski           : DLPNO-MP2, DLPNO-MP2 Gradient
   Christoph Reimann      : Effective Core Potentials
   Marius Retegan         : Local ZFS, SOC
   Christoph Riplinger    : Optimizer, TS searches, QM/MM, DLPNO-CCSD(T), (RO)-DLPNO pert. Triples
   Tobias Risthaus        : Range-separated hybrids, TD-DFT gradient, RPA, STAB
   Michael Roemelt        : Original ROCIS implementation
   Masaaki Saitow         : Open-shell DLPNO-CCSD energy and density
   Barbara Sandhoefer     : DKH picture change effects
   Avijit Sen             : IP-ROCIS
   Kantharuban Sivalingam : CASSCF convergence, NEVPT2, FIC-MRCI
   Bernardo de Souza      : ESD, SOC TD-DFT
   Georgi Stoychev        : AutoAux, RI-MP2 NMR, DLPNO-MP2 response
   Willem Van den Heuvel  : Paramagnetic NMR
   Boris Wezisla          : Elementary symmetry handling
   Frank Wennmohs         : Technical directorship


 We gratefully acknowledge several colleagues who have allowed us to
 interface, adapt or use parts of their codes:
   Stefan Grimme, W. Hujo, H. Kruse, P. Pracht,  : VdW corrections, initial TS optimization,
                  C. Bannwarth, S. Ehlert          DFT functionals, gCP, sTDA/sTD-DF
   Ed Valeev, F. Pavosevic, A. Kumar             : LibInt (2-el integral package), F12 methods
   Garnet Chan, S. Sharma, J. Yang, R. Olivares  : DMRG
   Ulf Ekstrom                                   : XCFun DFT Library
   Mihaly Kallay                                 : mrcc  (arbitrary order and MRCC methods)
   Jiri Pittner, Ondrej Demel                    : Mk-CCSD
   Frank Weinhold                                : gennbo (NPA and NBO analysis)
   Christopher J. Cramer and Donald G. Truhlar   : smd solvation model
   Lars Goerigk                                  : TD-DFT with DH, B97 family of functionals
   V. Asgeirsson, H. Jonsson                     : NEB implementation
   FAccTs GmbH                                   : IRC, NEB, NEB-TS, DLPNO-Multilevel, CI-OPT
                                                   MM, QMMM, 2- and 3-layer-ONIOM, Crystal-QMMM,
                                                   LR-CPCM, SF, NACMEs, symmetry and pop. for TD-DFT,
                                                   nearIR, NL-DFT gradient (VV10), updates on ESD,
                                                   ML-optimized integration grids
   S Lehtola, MJT Oliveira, MAL Marques          : LibXC Library
   Liviu Ungur et al                             : ANISO software


 Your calculation uses the libint2 library for the computation of 2-el integrals
 For citations please refer to: http://libint.valeyev.net

 Your ORCA version has been built with support for libXC version: 5.1.0
 For citations please refer to: https://tddft.org/programs/libxc/

 This ORCA versions uses:
   CBLAS   interface :  Fast vector & matrix operations
   LAPACKE interface :  Fast linear algebra routines
   SCALAPACK package :  Parallel linear algebra routines
   Shared memory     :  Shared parallel matrices
   BLAS/LAPACK       :  OpenBLAS 0.3.15  USE64BITINT DYNAMIC_ARCH NO_AFFINITY Zen SINGLE_THREADED
        Core in use  :  Zen
   Copyright (c) 2011-2014, The OpenBLAS Project


Your calculation utilizes the DFT-NL dispersion correction.
Cite in your paper:
Vydrov, O. A.; Van Voorhis, T. J. Chem. Phys. 2010, 133, 244103
Hujo, W.; Grimme, S. J. Chem. Theory Comput. 2011, 7, 3866 
   

Your calculation utilizes the SMD solvation module
Please cite in your paper:
A.V. Marenich, C.J. Cramer, D.G. Truhlar J. Phys. Chem. B, 113, (2009), 6378 

================================================================================

----- Orbital basis set information -----
Your calculation utilizes the basis: def2-TZVPP
   F. Weigend and R. Ahlrichs, Phys. Chem. Chem. Phys. 7, 3297 (2005).

----- AuxJ basis set information -----
Your calculation utilizes the auxiliary basis: def2/J
   F. Weigend, Phys. Chem. Chem. Phys. 8, 1057 (2006).

================================================================================
                                        WARNINGS
                       Please study these warnings very carefully!
================================================================================

Using LibXC functional ID 531 : wB97M-V exchange-correlation functional
[ 1]  N. Mardirossian and M. Head-Gordon, J. Chem. Phys. 144, 214110 (2016)
Using LibXC functional ID 531 : wB97M-V exchange-correlation functional
[ 1]  N. Mardirossian and M. Head-Gordon, J. Chem. Phys. 144, 214110 (2016)

WARNING: B97M-V or wB97M-V functional requested.
  ===> : libXC variant has now been activated.
         Any manually given DFX/HFX/RangeSep scaling parameters are IGNORED!

Your calculation utilizes LibXC
 by S Lehtola, C Steigemann, MJT Oliveira & MAL Marques
Please cite in your paper:
 S Lehtola, C Steigemann, MJT Oliveira & MAL Marques, SoftwareX, 7, (2018), 1.
   


INFO   : the flag for use of the SHARK integral package has been found!

================================================================================
                                       INPUT FILE
================================================================================
NAME = orca_input.inp
|  1> ! WB97M-V def2-TZVPP def2/J RIJCOSX tightSCF noautostart miniprint nopop
|  2> %maxcore 4000
|  3> %pal nprocs 16 end
|  4> 
|  5>  %cpcm
|  6>     smd true
|  7>     SMDsolvent "Acetone"
|  8>  end
|  9>  
| 10>  * xyz 0 1
| 11> O     2.9325860000   -0.6783980000   -1.4344590000
| 12> C     2.0489140000   -0.5840630000   -0.5985360000
| 13> C     0.8679650000   -1.4647990000   -0.5539410000
| 14> C    -0.1259570000   -1.2189140000    0.3290260000
| 15> C    -1.4605710000   -1.9017150000    0.3130340000
| 16> C    -2.5378140000   -1.0587000000   -0.4035640000
| 17> C    -2.6412240000    0.4018930000    0.0823560000
| 18> C    -1.4245920000    1.2039230000   -0.3516830000
| 19> O    -1.3792670000    1.7298940000   -1.4450520000
| 20> C    -0.4705474192    2.1237114736    0.2013245930
| 21> C     0.4988364280    2.4065665753   -0.2681530254
| 22> C     2.6287745720   -0.1878785753    0.7229160254
| 23> O     1.4467450000    0.0414160000    1.6479690000
| 24> C     0.2849294192   -0.9260164736    1.7435354070
| 25> H     0.8028050000   -2.2638510000   -1.2976170000
| 26> H    -1.3788030000   -2.8759640000   -0.1912860000
| 27> H    -1.7837170000   -2.0882920000    1.3510670000
| 28> H    -3.5138010000   -1.5483890000   -0.2653420000
| 29> H    -2.3324200000   -1.0513290000   -1.4860920000
| 30> H    -2.7624410000    0.4329220000    1.1770710000
| 31> H    -3.5233360000    0.8696470000   -0.3780420000
| 32> H    -0.5657180000    1.9928920000    1.4133890000
| 33> H     1.0205700000    1.7909430000   -1.0827610000
| 34> H     1.4497550000    2.6357660000    0.4213110000
| 35> H     3.0646820000    0.8562010000    0.6514410000
| 36> H    -0.4903780000   -0.2578870000    2.2413010000
| 37> 
| 38>  *
| 39> 
| 40>                          ****END OF INPUT****
================================================================================

                       ****************************
                       * Single Point Calculation *
                       ****************************

---------------------------------
CARTESIAN COORDINATES (ANGSTROEM)
---------------------------------
  O      2.932586   -0.678398   -1.434459
  C      2.048914   -0.584063   -0.598536
  C      0.867965   -1.464799   -0.553941
  C     -0.125957   -1.218914    0.329026
  C     -1.460571   -1.901715    0.313034
  C     -2.537814   -1.058700   -0.403564
  C     -2.641224    0.401893    0.082356
  C     -1.424592    1.203923   -0.351683
  O     -1.379267    1.729894   -1.445052
  C     -0.470547    2.123711    0.201325
  C      0.498836    2.406567   -0.268153
  C      2.628775   -0.187879    0.722916
  O      1.446745    0.041416    1.647969
  C      0.284929   -0.926016    1.743535
  H      0.802805   -2.263851   -1.297617
  H     -1.378803   -2.875964   -0.191286
  H     -1.783717   -2.088292    1.351067
  H     -3.513801   -1.548389   -0.265342
  H     -2.332420   -1.051329   -1.486092
  H     -2.762441    0.432922    1.177071
  H     -3.523336    0.869647   -0.378042
  H     -0.565718    1.992892    1.413389
  H      1.020570    1.790943   -1.082761
  H      1.449755    2.635766    0.421311
  H      3.064682    0.856201    0.651441
  H     -0.490378   -0.257887    2.241301

----------------------------
CARTESIAN COORDINATES (A.U.)
----------------------------
  NO LB      ZA    FRAG     MASS         X           Y           Z
   0 O     8.0000    0    15.999    5.541784   -1.281986   -2.710735
   1 C     6.0000    0    12.011    3.871886   -1.103719   -1.131069
   2 C     6.0000    0    12.011    1.640216   -2.768069   -1.046797
   3 C     6.0000    0    12.011   -0.238024   -2.303414    0.621769
   4 C     6.0000    0    12.011   -2.760079   -3.593721    0.591549
   5 C     6.0000    0    12.011   -4.795773   -2.000653   -0.762625
   6 C     6.0000    0    12.011   -4.991190    0.759468    0.155630
   7 C     6.0000    0    12.011   -2.692089    2.275085   -0.664585
   8 O     8.0000    0    15.999   -2.606437    3.269026   -2.730753
   9 C     6.0000    0    12.011   -0.889206    4.013233    0.380448
  10 C     6.0000    0    12.011    0.942664    4.547752   -0.506736
  11 C     6.0000    0    12.011    4.967664   -0.355039    1.366113
  12 O     8.0000    0    15.999    2.733952    0.078265    3.114210
  13 C     6.0000    0    12.011    0.538439   -1.749918    3.294804
  14 H     1.0000    0     1.008    1.517082   -4.278058   -2.452141
  15 H     1.0000    0     1.008   -2.605560   -5.434784   -0.361478
  16 H     1.0000    0     1.008   -3.370737   -3.946300    2.553147
  17 H     1.0000    0     1.008   -6.640122   -2.926031   -0.501424
  18 H     1.0000    0     1.008   -4.407635   -1.986724   -2.808307
  19 H     1.0000    0     1.008   -5.220257    0.818104    2.224342
  20 H     1.0000    0     1.008   -6.658140    1.643395   -0.714396
  21 H     1.0000    0     1.008   -1.069052    3.766020    2.670918
  22 H     1.0000    0     1.008    1.928598    3.384392   -2.046122
  23 H     1.0000    0     1.008    2.739640    4.980876    0.796162
  24 H     1.0000    0     1.008    5.791410    1.617985    1.231045
  25 H     1.0000    0     1.008   -0.926680   -0.487336    4.235445



           ************************************************************
           *        Program running with 16 parallel MPI-processes    *
           *              working on a common directory               *
           ************************************************************
------------------------------------------------------------------------------
                   ___                                                        
                  /   \      - P O W E R E D   B Y -                         
                 /     \                                                     
                 |  |  |   _    _      __       _____    __    __             
                 |  |  |  | |  | |    /  \     |  _  \  |  |  /  |          
                  \  \/   | |  | |   /    \    | | | |  |  | /  /          
                 / \  \   | |__| |  /  /\  \   | |_| |  |  |/  /          
                |  |  |   |  __  | /  /__\  \  |    /   |      \           
                |  |  |   | |  | | |   __   |  |    \   |  |\   \          
                \     /   | |  | | |  |  |  |  | |\  \  |  | \   \       
                 \___/    |_|  |_| |__|  |__|  |_| \__\ |__|  \__/        
                                                                              
                      - O R C A' S   B I G   F R I E N D -                    
                                      &                                       
                       - I N T E G R A L  F E E D E R -                       
                                                                              
 v1 FN, 2020, v2 2021                                                         
------------------------------------------------------------------------------


Reading SHARK input file orca_input.SHARKINP.tmp ... ok
----------------------
SHARK INTEGRAL PACKAGE
----------------------

Number of atoms                             ...     26
Number of basis functions                   ...    602
Number of shells                            ...    226
Maximum angular momentum                    ...      3
Integral batch strategy                     ... SHARK/LIBINT Hybrid
RI-J (if used) integral strategy            ... SPLIT-RIJ (Revised 2003 algorithm where possible)
Printlevel                                  ...      1
Contraction scheme used                     ... SEGMENTED contraction
Coulomb Range Separation                    ... NOT USED
Exchange Range Separation                   ... Long Range
   Mu parameter                             ...  0.300000
   Scaling (regular/separated)              ...  0.150000  0.850000
Finite Nucleus Model                        ... NOT USED
Auxiliary Coulomb fitting basis             ... AVAILABLE
   # of basis functions in Aux-J            ...    818
   # of shells in Aux-J                     ...    270
   Maximum angular momentum in Aux-J        ...      4
Auxiliary J/K fitting basis                 ... NOT available
Auxiliary Correlation fitting basis         ... NOT available
Auxiliary 'external' fitting basis          ... NOT available
Integral threshold                          ...     2.500000e-11
Primitive cut-off                           ...     2.500000e-12
Primitive pair pre-selection threshold      ...     2.500000e-12

Calculating pre-screening integrals         ... done (  0.0 sec) Dimension = 226
Organizing shell pair data                  ... done (  0.2 sec)
Shell pair information
Total number of shell pairs                 ...     25651
Shell pairs after pre-screening             ...     21730
Total number of primitive shell pairs       ...     71220
Primitive shell pairs kept                  ...     43369
          la=0 lb=0:   4668 shell pairs
          la=1 lb=0:   6046 shell pairs
          la=1 lb=1:   2001 shell pairs
          la=2 lb=0:   3439 shell pairs
          la=2 lb=1:   2291 shell pairs
          la=2 lb=2:    672 shell pairs
          la=3 lb=0:   1219 shell pairs
          la=3 lb=1:    826 shell pairs
          la=3 lb=2:    474 shell pairs
          la=3 lb=3:     94 shell pairs

Calculating one electron integrals          ... done (  0.0 sec)
Calculating RI/J V-Matrix + Cholesky decomp.... done (  0.0 sec)
Calculating Nuclear repulsion               ... done (  0.0 sec) ENN=    900.883591472883 Eh

SHARK setup successfully completed in   0.6 seconds

Maximum memory used throughout the entire GTOINT-calculation: 34.2 MB


           ************************************************************
           *        Program running with 16 parallel MPI-processes    *
           *              working on a common directory               *
           ************************************************************

Diagonalization of the overlap matrix:
Smallest eigenvalue                        ... 2.277e-05
Time for diagonalization                   ...    0.033 sec
Threshold for overlap eigenvalues          ... 1.000e-08
Number of eigenvalues below threshold      ... 0
Time for construction of square roots      ...    0.045 sec
Total time needed                          ...    0.079 sec

Time for model grid setup =    0.093 sec

Loading Hartree-Fock densities                     ... done
Calculating cut-offs                               ... done
Initializing the effective Hamiltonian             ... done
Setting up the integral package (SHARK)            ... done
Starting the Coulomb interaction                   ... done (   0.1 sec)
Reading the grid                                   ... done
Mapping shells                                     ... done
Starting the XC term evaluation                    ... done (   0.1 sec)
  promolecular density results
     # of electrons  =    101.999009275
     EX              =    -84.137782459
     EC              =     -3.398997684
     EX+EC           =    -87.536780143
Transforming the Hamiltonian                       ... done (   0.0 sec)
Diagonalizing the Hamiltonian                      ... done (   0.0 sec)
Back transforming the eigenvectors                 ... done (   0.0 sec)
Now organizing SCF variables                       ... done
-------------------
DFT GRID GENERATION
-------------------

General Integration Accuracy     IntAcc      ... 4.388
Radial Grid Type                 RadialGrid  ... OptM3 with GC (2021)
Angular Grid (max. ang.)         AngularGrid ... 4 (Lebedev-302)
Angular grid pruning method      GridPruning ... 4 (adaptive)
Weight generation scheme         WeightScheme... Becke
Basis function cutoff            BFCut       ... 1.0000e-11
Integration weight cutoff        WCut        ... 1.0000e-14
Angular grids for H and He will be reduced by one unit
Partially contracted basis set               ... off
Rotationally invariant grid construction     ... off

Total number of grid points                  ...   121986
Total number of batches                      ...     1920
Average number of points per batch           ...       63
Average number of grid points per atom       ...     4692
Time for grid setup =    0.469 sec

--------------------
COSX GRID GENERATION
--------------------

GRIDX 1
-------
General Integration Accuracy     IntAcc      ... 3.816
Radial Grid Type                 RadialGrid  ... OptM3 with GC (2021)
Angular Grid (max. ang.)         AngularGrid ... 1 (Lebedev-50)
Angular grid pruning method      GridPruning ... 4 (adaptive)
Weight generation scheme         WeightScheme... Becke
Basis function cutoff            BFCut       ... 1.0000e-11
Integration weight cutoff        WCut        ... 1.0000e-14
Angular grids for H and He will be reduced by one unit
Partially contracted basis set               ... on
Rotationally invariant grid construction     ... off

Total number of grid points                  ...    15485
Total number of batches                      ...      258
Average number of points per batch           ...       60
Average number of grid points per atom       ...      596
UseSFitting                                  ... on

GRIDX 2
-------
General Integration Accuracy     IntAcc      ... 4.020
Radial Grid Type                 RadialGrid  ... OptM3 with GC (2021)
Angular Grid (max. ang.)         AngularGrid ... 2 (Lebedev-110)
Angular grid pruning method      GridPruning ... 4 (adaptive)
Weight generation scheme         WeightScheme... Becke
Basis function cutoff            BFCut       ... 1.0000e-11
Integration weight cutoff        WCut        ... 1.0000e-14
Angular grids for H and He will be reduced by one unit
Partially contracted basis set               ... on
Rotationally invariant grid construction     ... off

Total number of grid points                  ...    33601
Total number of batches                      ...      537
Average number of points per batch           ...       62
Average number of grid points per atom       ...     1292
UseSFitting                                  ... on

GRIDX 3
-------
General Integration Accuracy     IntAcc      ... 4.338
Radial Grid Type                 RadialGrid  ... OptM3 with GC (2021)
Angular Grid (max. ang.)         AngularGrid ... 3 (Lebedev-194)
Angular grid pruning method      GridPruning ... 4 (adaptive)
Weight generation scheme         WeightScheme... Becke
Basis function cutoff            BFCut       ... 1.0000e-11
Integration weight cutoff        WCut        ... 1.0000e-14
Angular grids for H and He will be reduced by one unit
Partially contracted basis set               ... on
Rotationally invariant grid construction     ... off

Total number of grid points                  ...    73530
Total number of batches                      ...     1161
Average number of points per batch           ...       63
Average number of grid points per atom       ...     2828
UseSFitting                                  ... on

Time for X-Grid setup             =    0.653 sec


--------------------
CPCM SOLVATION MODEL
--------------------
CPCM parameters:
  Epsilon                                         ...      20.4930
  Refrac                                          ...       1.3588
  Rsolv                                           ...       1.3000
  Surface type                                    ... GAUSSIAN VDW
  Epsilon function type                           ...         CPCM
Solvent:                                     ... ACETONE
SMD-CDS solvent descriptors:
  Soln                                       ...    1.3588
  Soln25                                     ...    1.3559
  Sola                                       ...    0.0400
  Solb                                       ...    0.4900
  Solg                                       ...   33.7700
  Solc                                       ...    0.0000
  Solh                                       ...    0.0000
Radii:
 Radius for O  used is    4.1990 Bohr (=   2.2220 Ang.)
 Radius for C  used is    3.4960 Bohr (=   1.8500 Ang.)
 Radius for H  used is    2.2677 Bohr (=   1.2000 Ang.)
Calculating surface                               ...        done! (  0.0s)
GEPOL surface points                              ...         1441
GEPOL Volume                                      ...    1628.0330
GEPOL Surface-area                                ...     852.9534
Calculating surface distance matrix               ...        done! (  0.0s)
Performing Cholesky decomposition & store         ...        done! (  0.1s)
Overall time for CPCM initialization              ...                 0.1s
--------------
SCF ITERATIONS
--------------
ITER       Energy         Delta-E        Max-DP      RMS-DP      [F,P]     Damp
               ***  Starting incremental Fock matrix formation  ***
  0   -651.5312605901   0.000000000000 0.19648699  0.00113308  0.3174358 0.7000
  1   -651.7337989550  -0.202538364906 0.18464185  0.00098654  0.1495321 0.7000
                               ***Turning on DIIS***
  2   -651.8288127581  -0.095013803064 0.30395431  0.00182571  0.0670156 0.0000
  3   -651.9847109731  -0.155898215046 0.11681429  0.00064325  0.0762072 0.0000
  4   -652.0107519023  -0.026040929134 0.01630194  0.00014647  0.0112047 0.0000
  5   -652.0118570835  -0.001105181191 0.01361536  0.00009349  0.0088297 0.0000
                      *** Initiating the SOSCF procedure ***
                           *** Shutting down DIIS ***
                      *** Re-Reading the Fockian *** 
                      *** Removing any level shift *** 
ITER      Energy       Delta-E        Grad      Rot      Max-DP    RMS-DP
  6   -652.01223075  -0.0003736704  0.002742  0.002742  0.010599  0.000066
               *** Restarting incremental Fock matrix formation ***
  7   -652.01235139  -0.0001206388  0.001717  0.005369  0.014138  0.000076
  8   -652.01242018  -0.0000687867  0.000847  0.007743  0.017456  0.000100
  9   -652.01245115  -0.0000309700  0.000334  0.001024  0.001455  0.000017
 10   -652.01245805  -0.0000069049  0.000175  0.000436  0.002773  0.000014
 11   -652.01245957  -0.0000015127  0.000113  0.000432  0.000294  0.000003
 12   -652.01246027  -0.0000007047  0.000076  0.000639  0.000231  0.000003
 13   -652.01246047  -0.0000002010  0.000022  0.000271  0.000137  0.000002
 14   -652.01246051  -0.0000000399  0.000022  0.000064  0.000166  0.000001
 15   -652.01246052  -0.0000000029  0.000010  0.000064  0.000104  0.000001
 16   -652.01246050   0.0000000113  0.000004  0.000024  0.000033  0.000000
                  ***Gradient check signals convergence***
              ***Rediagonalizing the Fockian in SOSCF/NRSCF***

               *****************************************************
               *                     SUCCESS                       *
               *           SCF CONVERGED AFTER  17 CYCLES          *
               *****************************************************

Old exchange energy                            =    -26.417875799 Eh
New exchange energy                            =    -26.417893825 Eh
Exchange energy change after final integration =     -0.000018026 Eh
Total energy after final integration           =   -652.012478520 Eh
Final COS-X integration done in                =     7.881 sec

------------------
NL GRID GENERATION
------------------

General Integration Accuracy     IntAcc      ... 4.004
Radial Grid Type                 RadialGrid  ... OptM3 with GC (2021)
Angular Grid (max. ang.)         AngularGrid ... 2 (Lebedev-110)
Angular grid pruning method      GridPruning ... 4 (adaptive)
Weight generation scheme         WeightScheme... Becke
Basis function cutoff            BFCut       ... 1.0000e-10
Integration weight cutoff        WCut        ... 1.0000e-14
Angular grids for H and He will be reduced by one unit
Partially contracted basis set               ... off
Rotationally invariant grid construction     ... off

Total number of grid points                  ...    38575
Total number of batches                      ...      618
Average number of points per batch           ...       62
Average number of grid points per atom       ...     1484
Final grid set up in    0.1 sec

-------------------------------------------------------------------------------
                    post-SCF DFT-NL dispersion correction                      
-------------------------------------------------------------------------------

SCF Energy:   -652.012478520 
NL    Energy:  0.381324333 
SC+NL Energy: -651.631154186 
NL done in:    0.4 sec
-------------------------------------------------------------------------------

SMD CDS free energy correction energy :                -2.47360     Kcal/mol
Total Energy after SMD CDS correction =              -651.635096111 Eh
Total Energy       :         -651.63509611 Eh          -17731.89244 eV
  Last Energy change         ...    1.0099e-08  Tolerance :   1.0000e-08
  Last MAX-Density change    ...    1.9984e-15  Tolerance :   1.0000e-07
             **** THE GBW FILE WAS UPDATED (orca_input.gbw) ****
             **** DENSITY orca_input.scfp WAS UPDATED ****
             **** ENERGY FILE WAS UPDATED (orca_input.en.tmp) ****
             **** THE GBW FILE WAS UPDATED (orca_input.gbw) ****
             **** DENSITY orca_input.scfp WAS UPDATED ****
----------------
ORBITAL ENERGIES
----------------

  NO   OCC          E(Eh)            E(eV) 
   0   2.0000     -19.431369      -528.7544 
   1   2.0000     -19.310131      -525.4554 
   2   2.0000     -19.297560      -525.1133 
   3   2.0000     -10.447912      -284.3021 
   4   2.0000     -10.435001      -283.9508 
   5   2.0000     -10.431644      -283.8595 
   6   2.0000     -10.424850      -283.6746 
   7   2.0000     -10.392256      -282.7877 
   8   2.0000     -10.376108      -282.3483 
   9   2.0000     -10.357108      -281.8312 
  10   2.0000     -10.353155      -281.7237 
  11   2.0000     -10.351783      -281.6863 
  12   2.0000     -10.334442      -281.2145 
  13   2.0000     -10.321658      -280.8666 
  14   2.0000      -1.194897       -32.5148 
  15   2.0000      -1.179897       -32.1066 
  16   2.0000      -1.157495       -31.4970 
  17   2.0000      -0.972047       -26.4508 
  18   2.0000      -0.943056       -25.6619 
  19   2.0000      -0.913163       -24.8484 
  20   2.0000      -0.871870       -23.7248 
  21   2.0000      -0.834785       -22.7157 
  22   2.0000      -0.775948       -21.1146 
  23   2.0000      -0.752015       -20.4634 
  24   2.0000      -0.719411       -19.5762 
  25   2.0000      -0.684291       -18.6205 
  26   2.0000      -0.628264       -17.0959 
  27   2.0000      -0.621711       -16.9176 
  28   2.0000      -0.614794       -16.7294 
  29   2.0000      -0.606622       -16.5070 
  30   2.0000      -0.589209       -16.0332 
  31   2.0000      -0.579420       -15.7668 
  32   2.0000      -0.561790       -15.2871 
  33   2.0000      -0.551783       -15.0148 
  34   2.0000      -0.539593       -14.6831 
  35   2.0000      -0.524204       -14.2643 
  36   2.0000      -0.521945       -14.2028 
  37   2.0000      -0.512979       -13.9589 
  38   2.0000      -0.502503       -13.6738 
  39   2.0000      -0.500163       -13.6101 
  40   2.0000      -0.491917       -13.3857 
  41   2.0000      -0.464707       -12.6453 
  42   2.0000      -0.458909       -12.4875 
  43   2.0000      -0.443151       -12.0588 
  44   2.0000      -0.428121       -11.6498 
  45   2.0000      -0.413143       -11.2422 
  46   2.0000      -0.386003       -10.5037 
  47   2.0000      -0.376954       -10.2574 
  48   2.0000      -0.345253        -9.3948 
  49   2.0000      -0.320771        -8.7286 
  50   2.0000      -0.312758        -8.5106 
  51   0.0000      -0.075455        -2.0532 
  52   0.0000       0.007481         0.2036 
  53   0.0000       0.049142         1.3372 
  54   0.0000       0.084166         2.2903 
  55   0.0000       0.100667         2.7393 
  56   0.0000       0.109357         2.9758 
  57   0.0000       0.120939         3.2909 
  58   0.0000       0.133005         3.6192 
  59   0.0000       0.136051         3.7021 
  60   0.0000       0.153477         4.1763 
  61   0.0000       0.160545         4.3686 
  62   0.0000       0.163409         4.4466 
  63   0.0000       0.175882         4.7860 
  64   0.0000       0.180046         4.8993 
  65   0.0000       0.186986         5.0881 
  66   0.0000       0.196685         5.3521 
  67   0.0000       0.201942         5.4951 
  68   0.0000       0.206310         5.6140 
  69   0.0000       0.224175         6.1001 
  70   0.0000       0.228374         6.2144 
  71   0.0000       0.237332         6.4581 
  72   0.0000       0.247457         6.7337 
  73   0.0000       0.253327         6.8934 
  74   0.0000       0.260704         7.0941 
  75   0.0000       0.264001         7.1838 
  76   0.0000       0.277107         7.5405 
  77   0.0000       0.280934         7.6446 
  78   0.0000       0.290270         7.8987 
  79   0.0000       0.293822         7.9953 
  80   0.0000       0.304354         8.2819 
  81   0.0000       0.306025         8.3274 
  82   0.0000       0.312706         8.5092 
  83   0.0000       0.319741         8.7006 
  84   0.0000       0.325491         8.8571 
  85   0.0000       0.328366         8.9353 
  86   0.0000       0.342033         9.3072 
  87   0.0000       0.344541         9.3754 
  88   0.0000       0.364374         9.9151 
  89   0.0000       0.367423         9.9981 
  90   0.0000       0.379629        10.3302 
  91   0.0000       0.385059        10.4780 
  92   0.0000       0.395923        10.7736 
  93   0.0000       0.405288        11.0284 
  94   0.0000       0.406557        11.0630 
  95   0.0000       0.413821        11.2606 
  96   0.0000       0.418782        11.3956 
  97   0.0000       0.424601        11.5540 
  98   0.0000       0.433681        11.8011 
  99   0.0000       0.443840        12.0775 
 100   0.0000       0.448302        12.1989 
 101   0.0000       0.449842        12.2408 
 102   0.0000       0.457083        12.4379 
 103   0.0000       0.461970        12.5708 
 104   0.0000       0.470908        12.8141 
 105   0.0000       0.476361        12.9625 
 106   0.0000       0.483322        13.1519 
 107   0.0000       0.493087        13.4176 
 108   0.0000       0.496718        13.5164 
 109   0.0000       0.500709        13.6250 
 110   0.0000       0.508298        13.8315 
 111   0.0000       0.513775        13.9805 
 112   0.0000       0.516658        14.0590 
 113   0.0000       0.519591        14.1388 
 114   0.0000       0.527207        14.3460 
 115   0.0000       0.530741        14.4422 
 116   0.0000       0.537902        14.6371 
 117   0.0000       0.545699        14.8492 
 118   0.0000       0.551300        15.0016 
 119   0.0000       0.563125        15.3234 
 120   0.0000       0.573746        15.6124 
 121   0.0000       0.576714        15.6932 
 122   0.0000       0.579686        15.7741 
 123   0.0000       0.590568        16.0702 
 124   0.0000       0.592032        16.1100 
 125   0.0000       0.606162        16.4945 
 126   0.0000       0.614301        16.7160 
 127   0.0000       0.623981        16.9794 
 128   0.0000       0.637925        17.3588 
 129   0.0000       0.654209        17.8019 
 130   0.0000       0.657963        17.9041 
 131   0.0000       0.671974        18.2853 
 132   0.0000       0.680036        18.5047 
 133   0.0000       0.682092        18.5607 
 134   0.0000       0.689844        18.7716 
 135   0.0000       0.705147        19.1880 
 136   0.0000       0.715606        19.4726 
 137   0.0000       0.739101        20.1120 
 138   0.0000       0.741534        20.1782 
 139   0.0000       0.759739        20.6736 
 140   0.0000       0.774088        21.0640 
 141   0.0000       0.784283        21.3414 
 142   0.0000       0.784897        21.3581 
 143   0.0000       0.798065        21.7165 
 144   0.0000       0.805071        21.9071 
 145   0.0000       0.813202        22.1284 
 146   0.0000       0.821393        22.3512 
 147   0.0000       0.846987        23.0477 
 148   0.0000       0.855466        23.2784 
 149   0.0000       0.867807        23.6142 
 150   0.0000       0.875832        23.8326 
 151   0.0000       0.891092        24.2479 
 152   0.0000       0.900516        24.5043 
 153   0.0000       0.907061        24.6824 
 154   0.0000       0.918361        24.9899 
 155   0.0000       0.923234        25.1225 
 156   0.0000       0.933182        25.3932 
 157   0.0000       0.948341        25.8057 
 158   0.0000       0.953897        25.9568 
 159   0.0000       0.963483        26.2177 
 160   0.0000       0.974846        26.5269 
 161   0.0000       0.976781        26.5796 
 162   0.0000       0.995002        27.0754 
 163   0.0000       0.996567        27.1180 
 164   0.0000       0.998707        27.1762 
 165   0.0000       1.003687        27.3117 
 166   0.0000       1.015270        27.6269 
 167   0.0000       1.032408        28.0932 
 168   0.0000       1.038196        28.2508 
 169   0.0000       1.048314        28.5261 
 170   0.0000       1.050989        28.5989 
 171   0.0000       1.068210        29.0675 
 172   0.0000       1.073634        29.2151 
 173   0.0000       1.083991        29.4969 
 174   0.0000       1.093063        29.7438 
 175   0.0000       1.100321        29.9413 
 176   0.0000       1.116129        30.3714 
 177   0.0000       1.130334        30.7579 
 178   0.0000       1.134183        30.8627 
 179   0.0000       1.146990        31.2112 
 180   0.0000       1.157183        31.4886 
 181   0.0000       1.158145        31.5147 
 182   0.0000       1.166968        31.7548 
 183   0.0000       1.181508        32.1505 
 184   0.0000       1.193566        32.4786 
 185   0.0000       1.200858        32.6770 
 186   0.0000       1.203355        32.7450 
 187   0.0000       1.211544        32.9678 
 188   0.0000       1.217404        33.1272 
 189   0.0000       1.229084        33.4451 
 190   0.0000       1.235398        33.6169 
 191   0.0000       1.239479        33.7279 
 192   0.0000       1.247995        33.9597 
 193   0.0000       1.251577        34.0572 
 194   0.0000       1.270252        34.5653 
 195   0.0000       1.276428        34.7334 
 196   0.0000       1.290526        35.1170 
 197   0.0000       1.295963        35.2649 
 198   0.0000       1.305955        35.5369 
 199   0.0000       1.308351        35.6020 
 200   0.0000       1.322659        35.9914 
 201   0.0000       1.333087        36.2752 
 202   0.0000       1.340668        36.4814 
 203   0.0000       1.346661        36.6445 
 204   0.0000       1.371688        37.3255 
 205   0.0000       1.375892        37.4399 
 206   0.0000       1.390136        37.8275 
 207   0.0000       1.401507        38.1370 
 208   0.0000       1.405527        38.2463 
 209   0.0000       1.410689        38.3868 
 210   0.0000       1.420586        38.6561 
 211   0.0000       1.434136        39.0248 
 212   0.0000       1.441865        39.2352 
 213   0.0000       1.459390        39.7120 
 214   0.0000       1.466828        39.9144 
 215   0.0000       1.469066        39.9753 
 216   0.0000       1.479576        40.2613 
 217   0.0000       1.488669        40.5087 
 218   0.0000       1.495068        40.6829 
 219   0.0000       1.503749        40.9191 
 220   0.0000       1.512239        41.1501 
 221   0.0000       1.513716        41.1903 
 222   0.0000       1.523090        41.4454 
 223   0.0000       1.536915        41.8216 
 224   0.0000       1.546037        42.0698 
 225   0.0000       1.556431        42.3526 
 226   0.0000       1.561524        42.4912 
 227   0.0000       1.571188        42.7542 
 228   0.0000       1.586997        43.1844 
 229   0.0000       1.595244        43.4088 
 230   0.0000       1.602017        43.5931 
 231   0.0000       1.606348        43.7109 
 232   0.0000       1.625389        44.2291 
 233   0.0000       1.649113        44.8746 
 234   0.0000       1.654033        45.0085 
 235   0.0000       1.661911        45.2229 
 236   0.0000       1.674265        45.5591 
 237   0.0000       1.676559        45.6215 
 238   0.0000       1.698168        46.2095 
 239   0.0000       1.700256        46.2663 
 240   0.0000       1.723495        46.8987 
 241   0.0000       1.729736        47.0685 
 242   0.0000       1.737875        47.2900 
 243   0.0000       1.752853        47.6975 
 244   0.0000       1.763018        47.9741 
 245   0.0000       1.789920        48.7062 
 246   0.0000       1.796323        48.8804 
 247   0.0000       1.809335        49.2345 
 248   0.0000       1.816252        49.4227 
 249   0.0000       1.826013        49.6883 
 250   0.0000       1.839374        50.0519 
 251   0.0000       1.859813        50.6081 
 252   0.0000       1.865718        50.7688 
 253   0.0000       1.871152        50.9166 
 254   0.0000       1.886034        51.3216 
 255   0.0000       1.913981        52.0821 
 256   0.0000       1.927294        52.4443 
 257   0.0000       1.939007        52.7631 
 258   0.0000       1.956738        53.2456 
 259   0.0000       1.978631        53.8413 
 260   0.0000       1.982903        53.9575 
 261   0.0000       2.006157        54.5903 
 262   0.0000       2.030321        55.2478 
 263   0.0000       2.048438        55.7408 
 264   0.0000       2.055617        55.9362 
 265   0.0000       2.070462        56.3401 
 266   0.0000       2.088379        56.8277 
 267   0.0000       2.107121        57.3377 
 268   0.0000       2.115872        57.5758 
 269   0.0000       2.131637        58.0048 
 270   0.0000       2.147438        58.4348 
 271   0.0000       2.149547        58.4921 
 272   0.0000       2.177560        59.2544 
 273   0.0000       2.188198        59.5439 
 274   0.0000       2.208952        60.1086 
 275   0.0000       2.212800        60.2133 
 276   0.0000       2.237372        60.8820 
 277   0.0000       2.246580        61.1325 
 278   0.0000       2.256616        61.4056 
 279   0.0000       2.274997        61.9058 
 280   0.0000       2.291928        62.3665 
 281   0.0000       2.320411        63.1416 
 282   0.0000       2.328190        63.3533 
 283   0.0000       2.348476        63.9053 
 284   0.0000       2.361877        64.2699 
 285   0.0000       2.380605        64.7795 
 286   0.0000       2.391957        65.0884 
 287   0.0000       2.408467        65.5377 
 288   0.0000       2.429899        66.1209 
 289   0.0000       2.439779        66.3898 
 290   0.0000       2.452891        66.7466 
 291   0.0000       2.490100        67.7591 
 292   0.0000       2.533647        68.9440 
 293   0.0000       2.537234        69.0417 
 294   0.0000       2.557502        69.5932 
 295   0.0000       2.558904        69.6313 
 296   0.0000       2.569146        69.9100 
 297   0.0000       2.585881        70.3654 
 298   0.0000       2.589794        70.4719 
 299   0.0000       2.618248        71.2462 
 300   0.0000       2.629849        71.5618 
 301   0.0000       2.637619        71.7733 
 302   0.0000       2.656401        72.2844 
 303   0.0000       2.671346        72.6910 
 304   0.0000       2.688631        73.1614 
 305   0.0000       2.694435        73.3193 
 306   0.0000       2.716240        73.9127 
 307   0.0000       2.721009        74.0424 
 308   0.0000       2.736619        74.4672 
 309   0.0000       2.748782        74.7982 
 310   0.0000       2.758449        75.0612 
 311   0.0000       2.764794        75.2339 
 312   0.0000       2.784521        75.7707 
 313   0.0000       2.798667        76.1556 
 314   0.0000       2.804256        76.3077 
 315   0.0000       2.814856        76.5961 
 316   0.0000       2.817946        76.6802 
 317   0.0000       2.832986        77.0895 
 318   0.0000       2.843300        77.3701 
 319   0.0000       2.856908        77.7404 
 320   0.0000       2.864147        77.9374 
 321   0.0000       2.876740        78.2801 
 322   0.0000       2.886503        78.5457 
 323   0.0000       2.903070        78.9965 
 324   0.0000       2.914953        79.3199 
 325   0.0000       2.917469        79.3884 
 326   0.0000       2.925560        79.6085 
 327   0.0000       2.935634        79.8827 
 328   0.0000       2.943604        80.0995 
 329   0.0000       2.952970        80.3544 
 330   0.0000       2.962650        80.6178 
 331   0.0000       2.973562        80.9147 
 332   0.0000       2.976094        80.9836 
 333   0.0000       2.987277        81.2879 
 334   0.0000       3.004451        81.7553 
 335   0.0000       3.007253        81.8315 
 336   0.0000       3.022195        82.2381 
 337   0.0000       3.030754        82.4710 
 338   0.0000       3.053518        83.0905 
 339   0.0000       3.055917        83.1557 
 340   0.0000       3.065640        83.4203 
 341   0.0000       3.073982        83.6473 
 342   0.0000       3.086012        83.9746 
 343   0.0000       3.093911        84.1896 
 344   0.0000       3.104455        84.4765 
 345   0.0000       3.116775        84.8117 
 346   0.0000       3.119244        84.8790 
 347   0.0000       3.125031        85.0364 
 348   0.0000       3.134487        85.2937 
 349   0.0000       3.146946        85.6328 
 350   0.0000       3.152903        85.7948 
 351   0.0000       3.153699        85.8165 
 352   0.0000       3.175167        86.4007 
 353   0.0000       3.186830        86.7181 
 354   0.0000       3.200496        87.0899 
 355   0.0000       3.205640        87.2299 
 356   0.0000       3.215413        87.4958 
 357   0.0000       3.217136        87.5427 
 358   0.0000       3.224355        87.7392 
 359   0.0000       3.233698        87.9934 
 360   0.0000       3.239813        88.1598 
 361   0.0000       3.248908        88.4073 
 362   0.0000       3.258265        88.6619 
 363   0.0000       3.266665        88.8905 
 364   0.0000       3.271182        89.0134 
 365   0.0000       3.281488        89.2938 
 366   0.0000       3.291819        89.5750 
 367   0.0000       3.298609        89.7597 
 368   0.0000       3.302917        89.8769 
 369   0.0000       3.313104        90.1541 
 370   0.0000       3.320057        90.3434 
 371   0.0000       3.328194        90.5648 
 372   0.0000       3.337823        90.8268 
 373   0.0000       3.343002        90.9677 
 374   0.0000       3.350221        91.1642 
 375   0.0000       3.358145        91.3798 
 376   0.0000       3.367234        91.6271 
 377   0.0000       3.376673        91.8840 
 378   0.0000       3.381862        92.0251 
 379   0.0000       3.394881        92.3794 
 380   0.0000       3.399116        92.4946 
 381   0.0000       3.404780        92.6488 
 382   0.0000       3.430970        93.3614 
 383   0.0000       3.436536        93.5129 
 384   0.0000       3.440497        93.6207 
 385   0.0000       3.448316        93.8334 
 386   0.0000       3.464092        94.2627 
 387   0.0000       3.474520        94.5465 
 388   0.0000       3.487505        94.8998 
 389   0.0000       3.492763        95.0429 
 390   0.0000       3.494603        95.0930 
 391   0.0000       3.500609        95.2564 
 392   0.0000       3.508896        95.4819 
 393   0.0000       3.526221        95.9534 
 394   0.0000       3.537181        96.2516 
 395   0.0000       3.551394        96.6383 
 396   0.0000       3.559427        96.8569 
 397   0.0000       3.577132        97.3387 
 398   0.0000       3.583545        97.5132 
 399   0.0000       3.593097        97.7731 
 400   0.0000       3.601667        98.0063 
 401   0.0000       3.615219        98.3751 
 402   0.0000       3.616511        98.4103 
 403   0.0000       3.639131        99.0258 
 404   0.0000       3.647025        99.2406 
 405   0.0000       3.651785        99.3701 
 406   0.0000       3.667148        99.7882 
 407   0.0000       3.667990        99.8111 
 408   0.0000       3.680079       100.1400 
 409   0.0000       3.698399       100.6385 
 410   0.0000       3.703335       100.7729 
 411   0.0000       3.715667       101.1084 
 412   0.0000       3.726395       101.4004 
 413   0.0000       3.742520       101.8391 
 414   0.0000       3.749811       102.0375 
 415   0.0000       3.761894       102.3663 
 416   0.0000       3.773301       102.6768 
 417   0.0000       3.777883       102.8014 
 418   0.0000       3.779039       102.8329 
 419   0.0000       3.801950       103.4563 
 420   0.0000       3.815965       103.8377 
 421   0.0000       3.826350       104.1203 
 422   0.0000       3.831618       104.2636 
 423   0.0000       3.842673       104.5645 
 424   0.0000       3.843893       104.5976 
 425   0.0000       3.860431       105.0477 
 426   0.0000       3.871478       105.3483 
 427   0.0000       3.886078       105.7456 
 428   0.0000       3.891720       105.8991 
 429   0.0000       3.897670       106.0610 
 430   0.0000       3.921980       106.7225 
 431   0.0000       3.933105       107.0252 
 432   0.0000       3.942759       107.2879 
 433   0.0000       3.952210       107.5451 
 434   0.0000       3.968433       107.9865 
 435   0.0000       3.986316       108.4732 
 436   0.0000       3.990896       108.5978 
 437   0.0000       3.999142       108.8222 
 438   0.0000       4.010374       109.1278 
 439   0.0000       4.025264       109.5330 
 440   0.0000       4.029226       109.6408 
 441   0.0000       4.040508       109.9478 
 442   0.0000       4.047444       110.1365 
 443   0.0000       4.056762       110.3901 
 444   0.0000       4.070616       110.7671 
 445   0.0000       4.079110       110.9982 
 446   0.0000       4.082938       111.1024 
 447   0.0000       4.097843       111.5080 
 448   0.0000       4.108045       111.7856 
 449   0.0000       4.123941       112.2181 
 450   0.0000       4.132871       112.4611 
 451   0.0000       4.139252       112.6348 
 452   0.0000       4.156404       113.1015 
 453   0.0000       4.172367       113.5359 
 454   0.0000       4.176956       113.6608 
 455   0.0000       4.194666       114.1427 
 456   0.0000       4.206612       114.4677 
 457   0.0000       4.213037       114.6426 
 458   0.0000       4.220636       114.8494 
 459   0.0000       4.234854       115.2362 
 460   0.0000       4.240778       115.3974 
 461   0.0000       4.254464       115.7699 
 462   0.0000       4.267127       116.1144 
 463   0.0000       4.274084       116.3037 
 464   0.0000       4.286384       116.6384 
 465   0.0000       4.291220       116.7700 
 466   0.0000       4.304632       117.1350 
 467   0.0000       4.329813       117.8202 
 468   0.0000       4.337759       118.0364 
 469   0.0000       4.351114       118.3998 
 470   0.0000       4.351873       118.4205 
 471   0.0000       4.386558       119.3643 
 472   0.0000       4.391201       119.4907 
 473   0.0000       4.400812       119.7522 
 474   0.0000       4.418152       120.2240 
 475   0.0000       4.422175       120.3335 
 476   0.0000       4.440160       120.8229 
 477   0.0000       4.466272       121.5334 
 478   0.0000       4.480666       121.9251 
 479   0.0000       4.498784       122.4181 
 480   0.0000       4.521730       123.0425 
 481   0.0000       4.534286       123.3842 
 482   0.0000       4.549276       123.7921 
 483   0.0000       4.558397       124.0403 
 484   0.0000       4.587437       124.8305 
 485   0.0000       4.594439       125.0210 
 486   0.0000       4.629324       125.9703 
 487   0.0000       4.647225       126.4574 
 488   0.0000       4.660463       126.8177 
 489   0.0000       4.670525       127.0914 
 490   0.0000       4.685789       127.5068 
 491   0.0000       4.703308       127.9835 
 492   0.0000       4.712555       128.2352 
 493   0.0000       4.723181       128.5243 
 494   0.0000       4.731162       128.7415 
 495   0.0000       4.745462       129.1306 
 496   0.0000       4.775519       129.9485 
 497   0.0000       4.785872       130.2302 
 498   0.0000       4.794480       130.4644 
 499   0.0000       4.800028       130.6154 
 500   0.0000       4.813899       130.9928 
 501   0.0000       4.817944       131.1029 
 502   0.0000       4.836415       131.6055 
 503   0.0000       4.843641       131.8022 
 504   0.0000       4.882713       132.8654 
 505   0.0000       4.883813       132.8953 
 506   0.0000       4.898875       133.3052 
 507   0.0000       4.908570       133.5690 
 508   0.0000       4.921685       133.9259 
 509   0.0000       4.928832       134.1203 
 510   0.0000       4.941451       134.4637 
 511   0.0000       4.953801       134.7998 
 512   0.0000       4.969843       135.2363 
 513   0.0000       4.984324       135.6304 
 514   0.0000       4.998190       136.0077 
 515   0.0000       5.001343       136.0935 
 516   0.0000       5.031743       136.9207 
 517   0.0000       5.046298       137.3167 
 518   0.0000       5.048679       137.3815 
 519   0.0000       5.054417       137.5377 
 520   0.0000       5.084370       138.3527 
 521   0.0000       5.105712       138.9335 
 522   0.0000       5.133397       139.6868 
 523   0.0000       5.165361       140.5566 
 524   0.0000       5.175943       140.8446 
 525   0.0000       5.199068       141.4738 
 526   0.0000       5.227994       142.2610 
 527   0.0000       5.236043       142.4800 
 528   0.0000       5.262018       143.1868 
 529   0.0000       5.276912       143.5921 
 530   0.0000       5.302844       144.2977 
 531   0.0000       5.327089       144.9575 
 532   0.0000       5.345956       145.4708 
 533   0.0000       5.353949       145.6883 
 534   0.0000       5.369408       146.1090 
 535   0.0000       5.371976       146.1789 
 536   0.0000       5.388293       146.6229 
 537   0.0000       5.409126       147.1898 
 538   0.0000       5.422966       147.5664 
 539   0.0000       5.431236       147.7914 
 540   0.0000       5.451380       148.3396 
 541   0.0000       5.463954       148.6817 
 542   0.0000       5.479306       149.0995 
 543   0.0000       5.487993       149.3359 
 544   0.0000       5.497803       149.6028 
 545   0.0000       5.514762       150.0643 
 546   0.0000       5.536971       150.6686 
 547   0.0000       5.547561       150.9568 
 548   0.0000       5.563392       151.3876 
 549   0.0000       5.600817       152.4060 
 550   0.0000       5.625966       153.0903 
 551   0.0000       5.646318       153.6441 
 552   0.0000       5.686110       154.7269 
 553   0.0000       5.698172       155.0551 
 554   0.0000       5.718279       155.6023 
 555   0.0000       5.723383       155.7412 
 556   0.0000       5.738397       156.1497 
 557   0.0000       5.750641       156.4829 
 558   0.0000       5.760120       156.7408 
 559   0.0000       5.801130       157.8568 
 560   0.0000       5.815816       158.2564 
 561   0.0000       5.845502       159.0642 
 562   0.0000       5.865668       159.6129 
 563   0.0000       5.922860       161.1692 
 564   0.0000       6.090300       165.7255 
 565   0.0000       6.150417       167.3613 
 566   0.0000       6.214910       169.1163 
 567   0.0000       6.299903       171.4291 
 568   0.0000       6.317942       171.9200 
 569   0.0000       6.506584       177.0532 
 570   0.0000       6.514886       177.2791 
 571   0.0000       6.564490       178.6289 
 572   0.0000       6.620489       180.1527 
 573   0.0000       6.627157       180.3341 
 574   0.0000       6.643632       180.7824 
 575   0.0000       6.663743       181.3297 
 576   0.0000       6.727739       183.0711 
 577   0.0000       6.780661       184.5112 
 578   0.0000       6.786549       184.6714 
 579   0.0000       6.900092       187.7611 
 580   0.0000       6.979560       189.9235 
 581   0.0000       6.989986       190.2072 
 582   0.0000       7.183106       195.4622 
 583   0.0000       7.224558       196.5902 
 584   0.0000       7.234870       196.8708 
 585   0.0000       7.253939       197.3897 
 586   0.0000       7.294974       198.5063 
 587   0.0000       7.436963       202.3701 
 588   0.0000      22.660598       616.6262 
 589   0.0000      22.767880       619.5455 
 590   0.0000      22.912727       623.4870 
 591   0.0000      23.113032       628.9376 
 592   0.0000      23.436053       637.7274 
 593   0.0000      23.570404       641.3833 
 594   0.0000      23.609397       642.4443 
 595   0.0000      23.654058       643.6596 
 596   0.0000      23.730027       645.7269 
 597   0.0000      23.799394       647.6144 
 598   0.0000      24.220187       659.0648 
 599   0.0000      44.469962      1210.0892 
 600   0.0000      44.495223      1210.7766 
 601   0.0000      44.538504      1211.9543 
Total SCF time: 0 days 0 hours 1 min 21 sec 

Maximum memory used throughout the entire SCF-calculation: 119.9 MB

-------------------------   --------------------
FINAL SINGLE POINT ENERGY      -651.635096111497
-------------------------   --------------------


                            ***************************************
                            *     ORCA property calculations      *
                            ***************************************

                                    ---------------------
                                    Active property flags
                                    ---------------------
   (+) Dipole Moment


------------------------------------------------------------------------------
                       ORCA ELECTRIC PROPERTIES CALCULATION
------------------------------------------------------------------------------

Dipole Moment Calculation                       ... on
Quadrupole Moment Calculation                   ... off
Polarizability Calculation                      ... off
GBWName                                         ... orca_input.gbw
Electron density                                ... orca_input.scfp
The origin for moment calculation is the CENTER OF MASS  = ( 0.097370,  0.014560 -0.024769)

-------------
DIPOLE MOMENT
-------------
                                X             Y             Z
Electronic contribution:      7.60275       0.26929      -0.48246
Nuclear contribution   :     -9.93178      -1.48507       2.52645
                        -----------------------------------------
Total Dipole Moment    :     -2.32903      -1.21578       2.04399
                        -----------------------------------------
Magnitude (a.u.)       :      3.32872
Magnitude (Debye)      :      8.46093



--------------------
Rotational spectrum 
--------------------
 
Rotational constants in cm-1:     0.032216     0.020924     0.017225 
Rotational constants in MHz :   965.803276   627.278349   516.398761 

 Dipole components along the rotational axes: 
x,y,z [a.u.] :    -1.925731    -2.070267     1.756682 
x,y,z [Debye]:    -4.894819    -5.262201     4.465130 

 

Timings for individual modules:

Sum of individual times         ...       85.082 sec (=   1.418 min)
GTO integral calculation        ...        2.148 sec (=   0.036 min)   2.5 %
SCF iterations                  ...       82.934 sec (=   1.382 min)  97.5 %
                             ****ORCA TERMINATED NORMALLY****
TOTAL RUN TIME: 0 days 0 hours 1 minutes 26 seconds 907 msec
