ethylene_conf_000                                                       
Freq      RHF                                                         STO-3G              
Number of atoms                            I                6
Info1-9                                    I   N=           9
          15          15        1002           0           0         100
           6           1           2
Full Title                                 C   N=           2
ethylene_conf_000       
Route                                      C   N=           5
#p HF/STO-3G SCRF=(PCM,Solvent=Acetone) Opt=CalcFC Freq     
Charge                                     I                0
Multiplicity                               I                1
Number of electrons                        I               16
Number of alpha electrons                  I                8
Number of beta electrons                   I                8
Number of basis functions                  I               14
Number of independent functions            I               14
Number of point charges in /Mol/           I                0
Number of translation vectors              I                0
Atomic numbers                             I   N=           6
           6           6           1           1           1           1
Nuclear charges                            R   N=           6
  6.00000000E+00  6.00000000E+00  1.00000000E+00  1.00000000E+00  1.00000000E+00
  1.00000000E+00
Current cartesian coordinates              R   N=          18
  1.23409804E+00 -2.71121629E-22 -1.67564945E-06 -1.23409804E+00  1.65242394E-22
  1.78406602E-06  2.32301201E+00  1.73089544E+00 -3.06785990E-06  2.32301201E+00
 -1.73089544E+00 -3.71340187E-06 -2.32301202E+00 -1.73089545E+00  3.38816149E-06
 -2.32301201E+00  1.73089545E+00  2.74260083E-06
Number of symbols in /Mol/                 I                0
Force Field                                I                0
Atom Types                                 C   N=           6
                                                            
            
Int Atom Types                             I   N=           6
           0           0           0           0           0           0
MM charges                                 R   N=           6
  0.00000000E+00  0.00000000E+00  0.00000000E+00  0.00000000E+00  0.00000000E+00
  0.00000000E+00
Integer atomic weights                     I   N=           6
          12          12           1           1           1           1
Real atomic weights                        R   N=           6
  1.20000000E+01  1.20000000E+01  1.00782504E+00  1.00782504E+00  1.00782504E+00
  1.00782504E+00
Atom fragment info                         I   N=           6
           0           0           0           0           0           0
Atom residue num                           I   N=           6
           0           0           0           0           0           0
Nuclear spins                              I   N=           6
           0           0           1           1           1           1
Nuclear ZEff                               R   N=           6
 -3.60000000E+00 -3.60000000E+00 -1.00000000E+00 -1.00000000E+00 -1.00000000E+00
 -1.00000000E+00
Nuclear ZNuc                               R   N=           6
  6.00000000E+00  6.00000000E+00  1.00000000E+00  1.00000000E+00  1.00000000E+00
  1.00000000E+00
Nuclear QMom                               R   N=           6
  0.00000000E+00  0.00000000E+00  0.00000000E+00  0.00000000E+00  0.00000000E+00
  0.00000000E+00
Nuclear GFac                               R   N=           6
  0.00000000E+00  0.00000000E+00  2.79284600E+00  2.79284600E+00  2.79284600E+00
  2.79284600E+00
MicOpt                                     I   N=           6
          -1          -1          -1          -1          -1          -1
Number of residues                         I                0
Number of secondary structures             I                0
Redundant internal dimensions              I   N=           4
          15           5           6           4
Redundant internal coordinate indices      I   N=          60
           1           2           0           0           1           3
           0           0           1           4           0           0
           2           5           0           0           2           6
           0           0           2           1           3           0
           2           1           4           0           3           1
           4           0           1           2           5           0
           1           2           6           0           5           2
           6           0           3           1           2           5
           3           1           2           6           4           1
           2           5           4           1           2           6
Redundant internal coordinates             R   N=          15
  2.46819609E+00  2.04492852E+00  2.04492852E+00  2.04492853E+00  2.04492853E+00
  2.13234169E+00  2.13234169E+00  2.01850193E+00  2.13234169E+00  2.13234169E+00
  2.01850193E+00 -3.14159253E+00  4.05629205E-07  3.40451588E-07 -3.14159203E+00
ZRed-IntVec                                I   N=          15
           0           0           0           0           0           0
           0           0           0           0           0           0
           0           0           0
ZRed-FPVec                                 R   N=          15
  0.00000000E+00  0.00000000E+00  0.00000000E+00  0.00000000E+00  0.00000000E+00
  0.00000000E+00  0.00000000E+00  0.00000000E+00  0.00000000E+00  0.00000000E+00
  0.00000000E+00  0.00000000E+00  0.00000000E+00  0.00000000E+00  0.00000000E+00
ZRed-Constraint1                           R   N=          15
  2.46819609E+00  2.04492852E+00  2.04492852E+00  2.04492853E+00  2.04492853E+00
  2.13234169E+00  2.13234169E+00  2.01850193E+00  2.13234169E+00  2.13234169E+00
  2.01850193E+00 -3.14159253E+00  4.05355409E-07  3.40451588E-07 -3.14159203E+00
ZRed-Constraint2                           R   N=          15
  2.48912182E+00  2.03726514E+00  2.03726555E+00  2.03725196E+00  2.03726028E+00
  2.12863614E+00  2.12863686E+00  2.02591230E+00  2.12863732E+00  2.12863911E+00
  2.02590887E+00 -3.14158949E+00 -8.14450185E-05 -6.67012045E-05  3.14144135E+00
SymInf integers                            I   N=          26
           1           1           1           1           1           0
           0           0           0           0           0           0
           0           0           0           0           0           0
           0           0           0           0           0           0
           0           0
RotTr to input orientation                 R   N=          12
  1.00000000E+00 -6.96116825E-07 -0.00000000E+00 -6.96116825E-07 -1.00000000E+00
  0.00000000E+00 -0.00000000E+00 -0.00000000E+00 -1.00000000E+00  5.07652050E-07
 -7.25501242E-07 -3.49967382E-05
Number of contracted shells                I                8
Number of primitive shells                 I               24
Pure/Cartesian d shells                    I                0
Pure/Cartesian f shells                    I                0
Highest angular momentum                   I                1
Largest degree of contraction              I                3
Shell types                                I   N=           8
           0          -1           0          -1           0           0
           0           0
Number of primitives per shell             I   N=           8
           3           3           3           3           3           3
           3           3
Shell to atom map                          I   N=           8
           1           1           2           2           3           4
           5           6
Primitive exponents                        R   N=          24
  7.16168373E+01  1.30450963E+01  3.53051216E+00  2.94124936E+00  6.83483096E-01
  2.22289916E-01  7.16168373E+01  1.30450963E+01  3.53051216E+00  2.94124936E+00
  6.83483096E-01  2.22289916E-01  3.42525091E+00  6.23913730E-01  1.68855404E-01
  3.42525091E+00  6.23913730E-01  1.68855404E-01  3.42525091E+00  6.23913730E-01
  1.68855404E-01  3.42525091E+00  6.23913730E-01  1.68855404E-01
Contraction coefficients                   R   N=          24
  1.54328967E-01  5.35328142E-01  4.44634542E-01 -9.99672292E-02  3.99512826E-01
  7.00115469E-01  1.54328967E-01  5.35328142E-01  4.44634542E-01 -9.99672292E-02
  3.99512826E-01  7.00115469E-01  1.54328967E-01  5.35328142E-01  4.44634542E-01
  1.54328967E-01  5.35328142E-01  4.44634542E-01  1.54328967E-01  5.35328142E-01
  4.44634542E-01  1.54328967E-01  5.35328142E-01  4.44634542E-01
P(S=P) Contraction coefficients            R   N=          24
  0.00000000E+00  0.00000000E+00  0.00000000E+00  1.55916275E-01  6.07683719E-01
  3.91957393E-01  0.00000000E+00  0.00000000E+00  0.00000000E+00  1.55916275E-01
  6.07683719E-01  3.91957393E-01  0.00000000E+00  0.00000000E+00  0.00000000E+00
  0.00000000E+00  0.00000000E+00  0.00000000E+00  0.00000000E+00  0.00000000E+00
  0.00000000E+00  0.00000000E+00  0.00000000E+00  0.00000000E+00
Coordinates of each shell                  R   N=          24
  1.23409804E+00 -1.65242511E-22 -1.67564945E-06  1.23409804E+00 -1.65242511E-22
 -1.67564945E-06 -1.23409804E+00  5.93632758E-23  1.78406602E-06 -1.23409804E+00
  5.93632758E-23  1.78406602E-06  2.32301201E+00  1.73089544E+00 -3.06785990E-06
  2.32301201E+00 -1.73089544E+00 -3.71340187E-06 -2.32301202E+00 -1.73089545E+00
  3.38816149E-06 -2.32301201E+00  1.73089545E+00  2.74260083E-06
Num ILSW                                   I              100
ILSW                                       I   N=         100
           0           0           0           0           2           0
           0           0           0           0           0          -1
           5           0           0           0           2           0
           0           0           0           0           1           0
           1           0           0           0           0           0
           0           0      100000           0          -1           0
           0           0           0           0           0           0
           0           0           0           1           0           0
           0 -2000000000           1           0           0           0
           0           0           4          52           0           0
           0           0           0           0           0           0
           0           0           0           6           0           1
           0           0           0           0           0           0
           0           0           0           0           0           0
           0           0           0           0           0           0
           0           0           0           0           0           0
           0           0           0           0
Num RLSW                                   I               52
RLSW                                       R   N=          52
  1.00000000E+00  1.00000000E+00  1.00000000E+00  1.00000000E+00  1.00000000E+00
  0.00000000E+00  0.00000000E+00  1.00000000E+00  0.00000000E+00  0.00000000E+00
  0.00000000E+00  0.00000000E+00  1.00000000E+00  0.00000000E+00  0.00000000E+00
  0.00000000E+00  0.00000000E+00  1.00000000E+00  0.00000000E+00  0.00000000E+00
  0.00000000E+00  0.00000000E+00  1.00000000E+00  0.00000000E+00  0.00000000E+00
  0.00000000E+00  0.00000000E+00  1.00000000E+00  0.00000000E+00  0.00000000E+00
  0.00000000E+00  0.00000000E+00  1.00000000E+00  0.00000000E+00  0.00000000E+00
  0.00000000E+00  0.00000000E+00  0.00000000E+00  1.00000000E+00  1.00000000E+00
  0.00000000E+00  1.00000000E+00  0.00000000E+00  0.00000000E+00  0.00000000E+00
  0.00000000E+00  0.00000000E+00  0.00000000E+00  0.00000000E+00  0.00000000E+00
  0.00000000E+00  0.00000000E+00
MxBond                                     I                3
NBond                                      I   N=           6
           3           3           1           1           1           1
IBond                                      I   N=          18
           2           3           4           1           5           6
           1           0           0           1           0           0
           2           0           0           2           0           0
RBond                                      R   N=          18
  2.00000000E+00  1.00000000E+00  1.00000000E+00  2.00000000E+00  1.00000000E+00
  1.00000000E+00  1.00000000E+00  0.00000000E+00  0.00000000E+00  1.00000000E+00
  0.00000000E+00  0.00000000E+00  1.00000000E+00  0.00000000E+00  0.00000000E+00
  1.00000000E+00  0.00000000E+00  0.00000000E+00
Virial Ratio                               R      2.005768922652739E+00
SCF Energy                                 R     -7.707431192137213E+01
Total Energy                               R     -7.707431192137213E+01
RMS Force                                  R      2.303708671715421E-06
RMS Density                                R      2.270293896550619E-10
NImag                                      I                0
Job Status                                 I                1
Nuclear derivative order                   I                2
PCM-NSphere                                I                6
PCM-NGenSphere                             I                6
PCM-NOrd                                   I   N=           6
           1           2           3           4           5           6
PCM-SphereRadii                            R   N=           6
  4.00253442E+00  4.00253442E+00  2.99956228E+00  2.99956228E+00  2.99956228E+00
  2.99956228E+00
PCM-SphereLoc                              R   N=          18
  1.23409804E+00 -2.71121629E-22 -1.67564945E-06 -1.23409804E+00  1.65242394E-22
  1.78406602E-06  2.32301201E+00  1.73089544E+00 -3.06785990E-06  2.32301201E+00
 -1.73089544E+00 -3.71340187E-06 -2.32301202E+00 -1.73089545E+00  3.38816149E-06
 -2.32301201E+00  1.73089545E+00  2.74260083E-06
External E-field                           R   N=          35
  0.00000000E+00  0.00000000E+00  0.00000000E+00  0.00000000E+00  0.00000000E+00
  0.00000000E+00  0.00000000E+00  0.00000000E+00  0.00000000E+00  0.00000000E+00
  0.00000000E+00  0.00000000E+00  0.00000000E+00  0.00000000E+00  0.00000000E+00
  0.00000000E+00  0.00000000E+00  0.00000000E+00  0.00000000E+00  0.00000000E+00
  0.00000000E+00  0.00000000E+00  0.00000000E+00  0.00000000E+00  0.00000000E+00
  0.00000000E+00  0.00000000E+00  0.00000000E+00  0.00000000E+00  0.00000000E+00
  0.00000000E+00  0.00000000E+00  0.00000000E+00  0.00000000E+00  0.00000000E+00
IOpCl                                      I                0
IROHF                                      I                0
Alpha Orbital Energies                     R   N=          14
 -1.10219255E+01 -1.10208788E+01 -9.88774267E-01 -7.46195101E-01 -6.06165163E-01
 -5.40688645E-01 -4.58237540E-01 -3.37110056E-01  3.26947906E-01  6.18618041E-01
  6.99712814E-01  7.03401040E-01  9.47287073E-01  1.02692383E+00
Alpha MO coefficients                      R   N=         196
  7.01781183E-01  2.00166527E-02  2.03758550E-03  3.97706621E-13 -3.28458060E-09
  7.01783576E-01  2.00167604E-02 -2.03757007E-03  1.46710305E-12  2.24930952E-09
 -4.74884271E-03 -4.74884271E-03 -4.74885947E-03 -4.74885947E-03  7.01444926E-01
  3.16067451E-02 -4.52040540E-03 -4.70535070E-13  5.78231090E-09 -7.01442532E-01
 -3.16066767E-02 -4.52041237E-03 -1.45179529E-12  7.04575072E-09 -4.92117023E-03
 -4.92117023E-03  4.92115401E-03  4.92115401E-03 -1.79580180E-01  4.68357641E-01
 -1.19731222E-01  1.36171049E-11  1.58908571E-07 -1.79580180E-01  4.68357641E-01
  1.19731222E-01  3.42055202E-11 -1.78452101E-07  1.11576670E-01  1.11576670E-01
  1.11576670E-01  1.11576670E-01 -1.35759585E-01  4.10874143E-01  2.03362058E-01
  5.85461654E-11 -3.00038261E-07  1.35759585E-01 -4.10874144E-01  2.03362058E-01
  1.10691938E-10 -2.62108801E-07  2.23171371E-01  2.23171371E-01 -2.23171371E-01
 -2.23171370E-01  5.47583346E-11 -2.42569769E-10 -3.43485889E-10  3.97482832E-01
  3.80839199E-08 -1.89686733E-11  5.94508989E-11  4.01893027E-10  3.97482832E-01
 -3.80860685E-08  2.56061547E-01 -2.56061548E-01 -2.56061548E-01  2.56061548E-01
  1.46768783E-02 -1.60167050E-02  5.00141088E-01  9.39557667E-10 -7.48775574E-07
  1.46768784E-02 -1.60167046E-02 -5.00141088E-01 -2.16871587E-10  6.45749450E-07
  2.16751754E-01  2.16751753E-01  2.16751754E-01  2.16751753E-01 -7.91758261E-11
  2.51340474E-10 -9.06308964E-10  3.94033928E-01  2.18853824E-07 -3.10747988E-11
  1.28145740E-11  8.00051955E-10 -3.94033928E-01  2.18855952E-07  3.50176197E-01
 -3.50176198E-01  3.50176197E-01 -3.50176198E-01 -6.01489177E-09  3.24245367E-08
  9.52837111E-07 -1.98325863E-07  6.31970960E-01 -1.02658774E-08  5.00256036E-08
  8.11883267E-07  1.98329275E-07  6.31970960E-01 -1.20204223E-07  1.34328925E-07
 -1.21365406E-07  1.33167745E-07 -2.43851041E-08  1.27662857E-07  1.19131963E-06
 -2.04666787E-07  8.17542419E-01  2.90104996E-08 -1.55838392E-07 -1.07667892E-06
 -2.04671200E-07 -8.17542419E-01  5.92528007E-08 -1.86558193E-07 -4.40879778E-08
  2.01723015E-07 -2.36214925E-10  1.54492481E-09 -3.53654822E-10  6.97832092E-01
  2.98880347E-07  1.19931868E-11 -2.35649184E-10 -7.63211383E-10  6.97832102E-01
 -2.98884113E-07 -6.26434048E-01  6.26434047E-01  6.26434052E-01 -6.26434053E-01
 -1.23254720E-01  8.26837368E-01  5.20771377E-01 -1.25392122E-09 -7.87521055E-07
 -1.23254929E-01  8.26838685E-01 -5.20771665E-01  2.82234741E-10  6.28572042E-07
 -6.31374668E-01 -6.31374670E-01 -6.31375477E-01 -6.31375476E-01 -1.67545567E-01
  1.05644564E+00  2.28742628E-01 -1.63674759E-10 -4.86238360E-07  1.67545413E-01
 -1.05644460E+00  2.28741975E-01 -2.81559072E-10 -1.33943695E-07 -6.46227096E-01
 -6.46227096E-01  6.46226304E-01  6.46226303E-01  2.30703806E-10 -1.73363549E-09
  3.63189044E-09  9.57972139E-01  1.04783330E-07 -3.97543525E-10  3.20111403E-09
  2.20607000E-09 -9.57972129E-01  1.04788498E-07 -6.12500131E-01  6.12500129E-01
 -6.12500121E-01  6.12500121E-01  1.15692217E-01 -9.28908556E-01  1.17943869E+00
 -2.00143243E-09 -1.67709502E-06 -1.15692218E-01  9.28908559E-01  1.17943869E+00
  3.09097208E-09 -1.62622599E-06 -1.17984622E-01 -1.17984624E-01  1.17984623E-01
  1.17984619E-01
Orthonormal basis                          R   N=         196
  1.06456807E-01  3.48627917E-01 -1.10364086E-01  7.02606594E-11  1.35117197E-07
  1.06456806E-01  3.48627915E-01  1.10364088E-01  1.19334769E-10 -1.76984731E-07
  1.90532450E-01  1.90532450E-01  1.90532448E-01  1.90532449E-01  1.13321968E-01
  2.51477126E-01  2.52700901E-01 -5.03926500E-11 -3.67062269E-07 -1.13321969E-01
 -2.51477129E-01  2.52700899E-01 -5.88137283E-13 -3.29283764E-07  2.51808217E-01
  2.51808217E-01 -2.51808219E-01 -2.51808218E-01 -5.10622588E-11 -1.28500115E-10
 -5.06427664E-11  4.27851262E-01  2.89081468E-08 -6.65373709E-11 -1.46992366E-10
  1.43232990E-10  4.27851262E-01 -2.89104550E-08  2.28204747E-01 -2.28204748E-01
 -2.28204747E-01  2.28204747E-01 -4.97783322E-02 -3.03058342E-02  5.17418739E-01
  5.48140347E-10 -8.32425492E-07 -4.97783320E-02 -3.03058336E-02 -5.17418740E-01
 -2.08184629E-10  6.12142799E-07  1.91487458E-01  1.91487457E-01  1.91487459E-01
  1.91487458E-01  2.62070131E-10  1.81648849E-10 -5.88199890E-10  4.32531668E-01
  1.83030884E-05  1.69432114E-10  8.91572872E-11  6.22953302E-10 -4.32531668E-01
  1.83030908E-05  3.25067229E-01 -3.25067229E-01  3.25067229E-01 -3.25067230E-01
  1.51177568E-08  2.87942904E-08  9.96306672E-07 -1.25973494E-05  6.31970960E-01
  2.83538219E-08  4.06471860E-08  7.64152770E-07  1.25973529E-05  6.31970960E-01
 -9.38059124E-06  9.44095471E-06 -9.37995874E-06  9.44158726E-06  6.89162704E-01
  2.06622933E-02 -9.08732386E-02 -3.31753158E-11  1.78282121E-07 -6.89162706E-01
 -2.06622932E-02 -9.08732378E-02  3.68945033E-11  8.94419159E-08 -1.19792792E-01
 -1.19792792E-01  1.19792793E-01  1.19792793E-01  7.00302633E-01 -6.24488586E-02
  1.36889260E-01 -9.08436726E-11 -2.33833475E-07  7.00302630E-01 -6.24488585E-02
 -1.36889261E-01  2.51321645E-10  1.61321113E-07 -9.88621834E-02 -9.88621833E-02
 -9.88621834E-02 -9.88621832E-02 -4.28671584E-08  3.69453108E-08  1.20664351E-06
 -1.33520312E-07  8.17542419E-01  5.72036287E-08 -5.26017951E-08 -1.07512725E-06
 -1.33524723E-07 -8.17542419E-01  6.07423065E-08 -8.60258822E-08 -5.91650065E-08
  8.76031864E-08 -5.66891939E-11  2.69349047E-10 -1.35594860E-09  6.79636317E-01
  2.25373997E-07 -1.51437498E-10  2.97757459E-10 -1.19619266E-09  6.79636334E-01
 -2.25377664E-07 -6.37110447E-01  6.37110448E-01  6.37110456E-01 -6.37110458E-01
 -8.26721260E-02  2.43939308E-01  9.27179345E-01  3.84503465E-09 -1.40222506E-06
  8.26721343E-02 -2.43939341E-01  9.27179364E-01 -1.91982447E-09 -1.17888026E-06
 -5.68439838E-01 -5.68439832E-01  5.68439858E-01  5.68439859E-01  1.05137226E-09
 -4.16494081E-09 -4.20039571E-09  9.41217146E-01  1.12378759E-07  3.96077897E-10
 -1.94133902E-09 -1.45342420E-09 -9.41217131E-01  1.12383831E-07 -6.26187730E-01
  6.26187738E-01 -6.26187719E-01  6.26187720E-01 -1.89525732E-01  8.81656101E-01
  4.86870384E-01  3.17371398E-09 -7.40358870E-07 -1.89525731E-01  8.81656099E-01
 -4.86870338E-01 -3.47431413E-09  5.95930342E-07 -6.12653193E-01 -6.12653189E-01
 -6.12653170E-01 -6.12653165E-01 -2.39349886E-01  1.42323219E+00 -7.43638336E-01
  4.37648016E-11  1.00421949E-06  2.39349884E-01 -1.42323219E+00 -7.43638340E-01
 -5.60911961E-10  1.08842039E-06 -2.83685473E-01 -2.83685473E-01  2.83685467E-01
  2.83685468E-01
Total SCF Density                          R   N=         105
  2.07083386E+00 -2.07810453E-01  7.79665257E-01 -1.01472114E-03  3.87329533E-02
  6.11714771E-01 -1.21720280E-11  3.59803526E-11 -2.72903818E-11  6.26510677E-01
 -1.68753857E-09 -3.25012454E-08  2.95192815E-07 -4.79253009E-08  7.98774589E-01
  2.90179810E-02 -7.33713574E-02  1.22101923E-01  2.39121577E-13 -1.86216695E-07
  2.07083386E+00 -7.33713574E-02  1.00399075E-01 -2.94920390E-01 -8.06609601E-12
  4.82126293E-07 -2.07810454E-01  7.79665260E-01 -1.22101923E-01  2.94920390E-01
 -4.46208529E-01  3.69171196E-11  1.69114110E-06  1.01472103E-03 -3.87329535E-02
  6.11714771E-01  5.72407493E-11 -2.60979284E-10  2.61467890E-10  5.45973060E-03
  1.08480430E-07  2.49051341E-11 -1.46399224E-11 -4.05300840E-11  6.26510677E-01
  1.59654642E-07 -3.61713659E-07  1.78633451E-06 -1.08476147E-07  7.98774589E-01
 -7.82226535E-09  9.04172115E-08  2.30830219E-07  4.79262267E-08  7.98774589E-01
 -1.07875901E-01  2.80461770E-01  2.80888811E-01  4.79522744E-01 -4.02234177E-07
  2.71223831E-02 -8.56974462E-02 -9.92614714E-02 -7.24024671E-02  1.04871777E-07
  5.94947583E-01 -1.07875901E-01  2.80461769E-01  2.80888811E-01 -4.79522744E-01
 -4.26075968E-07  2.71223831E-02 -8.56974461E-02 -9.92614716E-02  7.24024672E-02
  1.59043822E-07 -1.57815959E-01  5.94947583E-01  2.71223831E-02 -8.56974460E-02
  9.92614717E-02  7.24024672E-02 -1.74755533E-07 -1.07875901E-01  2.80461770E-01
 -2.80888811E-01 -4.79522743E-01  3.76533034E-07  1.33358805E-01 -9.48646082E-02
  5.94947583E-01  2.71223831E-02 -8.56974463E-02  9.92614718E-02 -7.24024673E-02
 -1.20582702E-07 -1.07875901E-01  2.80461770E-01 -2.80888811E-01  4.79522744E-01
  3.52686062E-07 -9.48646084E-02  1.33358805E-01 -1.57815959E-01  5.94947584E-01
Grdnt Energy                               R     -7.707431192137213E+01
Grdnt NVar                                 I               15
Grdnt IGetFC                               I                4
Internal Forces                            R   N=          15
 -1.02046992E-05 -1.22862757E-06 -1.22872287E-06 -1.23083906E-06 -1.23112026E-06
 -1.02948432E-06 -1.02936154E-06  2.05884586E-06 -1.02949631E-06 -1.02917289E-06
  2.05866920E-06 -5.66512413E-10 -1.90517740E-08 -1.57357039E-08 -3.42209655E-08
Internal Force Constants                   R   N=         120
  9.23890908E-01 -7.98144145E-04  4.88797144E-01 -7.98144119E-04 -6.03944996E-03
  4.88797143E-01 -7.98144086E-04  6.27463288E-04  1.12686118E-03  4.88797136E-01
 -7.98144040E-04  1.12686118E-03  6.27463281E-04 -6.03944990E-03  4.88797135E-01
  1.27740916E-02  4.37161462E-03 -1.09652577E-02  3.69458894E-03 -3.75627417E-03
  1.07154757E-01  1.27740916E-02 -1.09652576E-02  4.37161463E-03 -3.75627416E-03
  3.69458895E-03 -5.75280473E-02  1.07154757E-01 -2.55481833E-02  6.59364303E-03
  6.59364303E-03  6.16852198E-05  6.16852221E-05 -4.96267099E-02 -4.96267100E-02
  9.92534199E-02  1.27740915E-02  3.69458893E-03 -3.75627417E-03  4.37161466E-03
 -1.09652576E-02  1.45858872E-02 -1.31946736E-02 -1.39121358E-03  1.07154757E-01
  1.27740916E-02 -3.75627416E-03  3.69458894E-03 -1.09652576E-02  4.37161466E-03
 -1.31946736E-02  1.45858872E-02 -1.39121361E-03 -5.75280473E-02  1.07154757E-01
 -2.55481831E-02  6.16852351E-05  6.16852279E-05  6.59364291E-03  6.59364292E-03
 -1.39121359E-03 -1.39121360E-03  2.78242719E-03 -4.96267097E-02 -4.96267098E-02
  9.92534195E-02  2.00716531E-09 -1.40244537E-10 -2.27407911E-10 -8.19031798E-11
 -7.76114040E-11 -2.89659315E-09  1.08008777E-08 -2.08807959E-09 -1.20156880E-09
  1.12071023E-08 -2.45016153E-09  4.52321783E-02 -1.04438000E-08 -6.32786413E-10
 -7.08510028E-10 -1.55844666E-09 -1.43873187E-09 -3.01982893E-09  8.53212960E-09
 -1.19319421E-09  7.44586132E-09 -1.73112759E-08  4.25480484E-09  1.16568304E-02
  3.65898414E-02 -5.92676934E-09 -1.10304475E-09 -1.07478483E-09 -2.68838966E-10
 -2.53107758E-10  7.81633881E-09 -1.56519967E-08  3.51655146E-09 -1.36055051E-09
  8.90260700E-09 -1.93144680E-09  1.16568303E-02 -1.32761806E-02  3.65898414E-02
 -1.83777347E-08 -1.59558650E-09 -1.55588696E-09 -1.74538235E-09 -1.61422826E-09
  7.69310305E-09 -1.79207449E-08  4.41143687E-09  7.28687963E-09 -1.96157712E-08
  4.77351957E-09 -2.19185175E-02  1.16568304E-02  1.16568305E-02  4.52321783E-02
Mulliken Charges                           R   N=           6
 -1.30882106E-01 -1.30882109E-01  6.54410537E-02  6.54410536E-02  6.54410539E-02
  6.54410537E-02
Optimization MaxStp                        I                2
Optimization Job offset                    I                0
Optimization Num results per geometry      I                2
Optimization Num geometry variables        I               18
Opt point       1 Results for each geome   R   N=           2
 -7.70743119E+01  0.00000000E+00
Opt point       1 Geometries               R   N=          18
  1.23409804E+00 -1.65242511E-22 -1.67564945E-06 -1.23409804E+00  5.93632758E-23
  1.78406602E-06  2.32301201E+00  1.73089544E+00 -3.06785990E-06  2.32301201E+00
 -1.73089544E+00 -3.71340187E-06 -2.32301202E+00 -1.73089545E+00  3.38816149E-06
 -2.32301201E+00  1.73089545E+00  2.74260083E-06
Opt point       1 Gradient at each geome   R   N=          18
  6.33959113E-06  2.93535825E-10  1.58307998E-08 -6.33735625E-06 -5.03138659E-10
  2.30570177E-08  1.93255391E-06  2.35757092E-07  1.13351617E-08  1.93255418E-06
 -2.35869186E-07 -2.88608590E-08 -1.93366333E-06 -2.37671844E-07  9.41695001E-09
 -1.93367965E-06  2.37993545E-07 -3.07790702E-08
Optimization Number of geometries          I   N=           1
           1
ONIOM Charges                              I   N=          16
           0           0           0           0           0           0
           0           0           0           0           0           0
           0           0           0           0
ONIOM Multiplicities                       I   N=          16
           1           0           0           0           0           0
           0           0           0           0           0           0
           0           0           0           0
Atom Layers                                I   N=           6
           1           1           1           1           1           1
Atom Modifiers                             I   N=           6
           0           0           0           0           0           0
Force Field                                I                0
Atom Modified Types                        C   N=           6
                                                            
            
Int Atom Modified Types                    I   N=           6
           0           0           0           0           0           0
Link Atoms                                 I   N=           6
           0           0           0           0           0           0
Atom Modified MM Charges                   R   N=           6
  0.00000000E+00  0.00000000E+00  0.00000000E+00  0.00000000E+00  0.00000000E+00
  0.00000000E+00
Link Distances                             R   N=          24
  0.00000000E+00  0.00000000E+00  0.00000000E+00  0.00000000E+00  0.00000000E+00
  0.00000000E+00  0.00000000E+00  0.00000000E+00  0.00000000E+00  0.00000000E+00
  0.00000000E+00  0.00000000E+00  0.00000000E+00  0.00000000E+00  0.00000000E+00
  0.00000000E+00  0.00000000E+00  0.00000000E+00  0.00000000E+00  0.00000000E+00
  0.00000000E+00  0.00000000E+00  0.00000000E+00  0.00000000E+00
Cartesian Gradient                         R   N=          18
  6.33959113E-06  2.93535825E-10  1.58307998E-08 -6.33735625E-06 -5.03138659E-10
  2.30570177E-08  1.93255391E-06  2.35757092E-07  1.13351617E-08  1.93255418E-06
 -2.35869186E-07 -2.88608590E-08 -1.93366333E-06 -2.37671844E-07  9.41695001E-09
 -1.93367965E-06  2.37993545E-07 -3.07790702E-08
Cartesian Force Constants                  R   N=         171
  1.27151865E+00  1.79603676E-10  8.94199774E-01 -1.59949081E-06  1.06155881E-07
  1.62787013E-01 -8.67263889E-01 -2.66814194E-11  1.11956283E-06  1.27151865E+00
  1.53862966E-11 -1.72818685E-01 -9.93613037E-09  7.86715630E-10  8.94199763E-01
  1.09798245E-06  9.93666865E-09 -7.31307276E-02 -1.48540700E-06 -1.06159829E-07
  1.62787014E-01 -1.89251154E-01 -1.71335782E-01  1.81274086E-07 -1.28762285E-02
 -3.88357676E-02  3.17055839E-08  1.89986830E-01 -1.75915308E-01 -3.71423855E-01