26
 energy: -41.439986031304 gnorm: 0.810041942099 xtb: 6.7.1 (edcfbbe)
O            2.93258500000000       -0.67839800000000       -1.43445900000000
C            2.04891400000000       -0.58406400000000       -0.59853600000000
C            0.86796400000000       -1.46479900000000       -0.55394100000000
C           -0.12595800000000       -1.21891400000000        0.32902600000000
C           -1.46057200000000       -1.90171400000000        0.31303500000000
C           -2.53781500000000       -1.05869900000000       -0.40356400000000
C           -2.64122400000000        0.40189400000000        0.08235500000000
C           -1.42459100000000        1.20392300000000       -0.35168300000000
O           -1.37926500000000        1.72989300000000       -1.44505300000000
C           -0.47054574850000        2.12371125490000        0.20132408710000
C            0.49883732380000        2.40656583920000       -0.26815399400000
C            2.62877467620000       -0.18787883920000        0.72291799400000
O            1.44674500000000        0.04141600000000        1.64796900000000
C            0.28492874850000       -0.92601625490000        1.74353691290000
H            0.80280300000000       -2.26385100000000       -1.29761700000000
H           -1.37880500000000       -2.87596400000000       -0.19128500000000
H           -1.78371800000000       -2.08829100000000        1.35106800000000
H           -3.51380200000000       -1.54838800000000       -0.26534200000000
H           -2.33242000000000       -1.05132800000000       -1.48609200000000
H           -2.76244000000000        0.43292300000000        1.17707100000000
H           -3.52333600000000        0.86964800000000       -0.37804200000000
H           -0.56571800000000        1.99289200000000        1.41338900000000
H            1.02057100000000        1.79094300000000       -1.08276000000000
H            1.44975600000000        2.63576500000000        0.42131200000000
H            3.06468300000000        0.85620000000000        0.65144100000000
H           -0.49037900000000       -0.25788600000000        2.24130100000000
26
 energy: -41.664186406383 gnorm: 0.269519711754 xtb: 6.7.1 (edcfbbe)
O            2.93057004680864       -0.66772097516619       -1.47166305236629
C            2.08802626925121       -0.65249304971604       -0.57399740341756
C            0.86748218524302       -1.46613757595249       -0.56436096563999
C           -0.11634310944536       -1.26086688552318        0.35720353408874
C           -1.46708478471131       -1.90753012992503        0.31457737734982
C           -2.53705033944609       -1.06083425750820       -0.40694400792660
C           -2.63982718012549        0.39419559716587        0.08509041654637
C           -1.47401325513086        1.23370123935044       -0.37107997987633
O           -1.42309703644482        1.70024290750441       -1.51573998968511
C           -0.50147108020672        2.05661417274458        0.29722897452307
C            0.61975504350821        2.37915303532811       -0.25254038015112
C            2.54432762103088       -0.13571156955020        0.73412935720492
O            1.46507269254173        0.01775030933972        1.67537330040154
C            0.29986454082745       -0.83066701149789        1.69181579635015
H            0.79125087990368       -2.24280987140478       -1.31868687379494
H           -1.38373224570135       -2.87461706743673       -0.19225553780306
H           -1.78648539907300       -2.08878569468285        1.34727332026990
H           -3.50990057582145       -1.54664880447397       -0.26546485092301
H           -2.33167727814698       -1.04987885039219       -1.48401700717295
H           -2.75832561879613        0.43168849632647        1.17464121357274
H           -3.51814896089693        0.86461484764154       -0.37594645780089
H           -0.58545303331776        2.02664409755168        1.43470741819271
H            1.02322643612203        1.82080608106207       -1.11879662513323
H            1.46241186884528        2.67137145637665        0.41313798357361
H            3.07467924091072        0.83933226165894        0.66858799827817
H           -0.47808392772861       -0.27182975882075        2.25694444133931
26
 energy: -41.759748307142 gnorm: 0.117480354892 xtb: 6.7.1 (edcfbbe)
O            2.92486710567105       -0.66453189019874       -1.48993999477465
C            2.11769240550837       -0.71575405943778       -0.55158499877532
C            0.87818607038387       -1.48087973923304       -0.56549817478576
C           -0.09103875547079       -1.30638666673333        0.38912709099177
C           -1.46591179446156       -1.91113177010972        0.32062310083765
C           -2.52716923251719       -1.05749721966118       -0.40764609833928
C           -2.62428294263950        0.39764557131584        0.08568000598876
C           -1.50200786443997        1.28049403035104       -0.40787348065620
O           -1.45659737166832        1.66670906061414       -1.58534858087608
C           -0.48213238227445        1.98375323915217        0.37068107177620
C            0.67109505144679        2.31981176522934       -0.20331307761830
C            2.42592819996902       -0.08673969855854        0.74203962132449
O            1.46908559405198        0.00106944108505        1.67327913683678
C            0.32892507039744       -0.71517084500949        1.62569681457502
H            0.76835243602341       -2.20814769397991       -1.35819904063972
H           -1.39237713227561       -2.87257168248113       -0.19176806630880
H           -1.79392257028129       -2.08973279428307        1.34545419657316
H           -3.49898646009226       -1.54126474433682       -0.26387630020581
H           -2.32604452190520       -1.04652609405230       -1.48108251004699
H           -2.74347508362989        0.43154887198842        1.17131407172179
H           -3.51363050215387        0.85239006626364       -0.36896394389849
H           -0.59089519364120        2.06636295978622        1.43365362425373
H            0.99140857739788        1.86027802371925       -1.14139188263025
H            1.45271239284699        2.70235486417657        0.40909347147610
H            3.08663205244456        0.80335294130246        0.70521069595650
H           -0.45044014869026       -0.28985293690908        2.28385124724372
26
 energy: -41.790327892695 gnorm: 0.065763569533 xtb: 6.7.1 (edcfbbe)
O            2.91747843582824       -0.67853273707567       -1.48763138377079
C            2.12377917250464       -0.74240773553268       -0.54618893442803
C            0.89275417219118       -1.50012706941886       -0.55546487409739
C           -0.06873180243786       -1.32849710905773        0.40878372935139
C           -1.45603962559801       -1.91114604935133        0.32909444913652
C           -2.50458338063679       -1.04970133730992       -0.40707470583079
C           -2.61271193072766        0.40399842059082        0.08431517617512
C           -1.51150593568489        1.29184268794403       -0.45182037845652
O           -1.49042238483191        1.62838209831261       -1.62944720385720
C           -0.46347621709532        1.90541757440761        0.40121744126172
C            0.70233016084550        2.25216385174873       -0.17041405967932
C            2.34267401072942       -0.05198532274749        0.71854408779427
O            1.46276845991685       -0.02093376720868        1.66204650283434
C            0.31918532135881       -0.63507032784367        1.57761246729726
H            0.73215184430653       -2.16027884488134       -1.40690629371445
H           -1.39836704094984       -2.87056483643496       -0.18787931045730
H           -1.80288078273102       -2.08774288863633        1.34749799630389
H           -3.47636702793401       -1.53108937647728       -0.26051038926733
H           -2.30624434271356       -1.04036725446349       -1.47946453283572
H           -2.70833585994015        0.43687900124524        1.17003104539711
H           -3.52193429489815        0.83395029583707       -0.35480951485854
H           -0.63974735928096        2.11915774434803        1.45959554964504
H            0.97339476776303        1.90379569667024       -1.17315883327817
H            1.46838989034941        2.75877974866619        0.41754563435847
H            3.10500839486780        0.75680375124965        0.75548032512948
H           -0.42259364520130       -0.30314321458075        2.31822400984700
26
 energy: -41.798650840002 gnorm: 0.049112805839 xtb: 6.7.1 (edcfbbe)
O            2.90668436143926       -0.68411829798200       -1.49861800013712
C            2.12642447187412       -0.75431754983803       -0.54393122276051
C            0.88419327355735       -1.49558610616573       -0.55544672367465
C           -0.06905925477646       -1.32732170797403        0.42014780312051
C           -1.45125021140459       -1.91309747404241        0.34031068093383
C           -2.47999167459787       -1.04130451712915       -0.40479891424326
C           -2.59492421349490        0.41190682143884        0.08485307894315
C           -1.51062247113819        1.30559674433203       -0.48686953853670
O           -1.50626914056090        1.58826068428970       -1.67349800038243
C           -0.46801716822409        1.88864485848590        0.40189303635488
C            0.70903750581093        2.23914452012390       -0.14791681985630
C            2.31702309105908       -0.02411727803022        0.68603947278034
O            1.47883804996581       -0.04345987632712        1.69001056202928
C            0.28718287516245       -0.58629172263124        1.55104081540271
H            0.68720629673233       -2.10789598784715       -1.43743585211601
H           -1.40128122767472       -2.87158804405069       -0.17856256628202
H           -1.81257050461185       -2.08624700796156        1.35477298544911
H           -3.45166606876635       -1.52188889152825       -0.26498057068560
H           -2.26951552246431       -1.03115556739024       -1.47489892088115
H           -2.65382808992782        0.44997978956015        1.17230556859515
H           -3.52944803123193        0.81054583255230       -0.33183813537640
H           -0.68259629573925        2.09763884498207        1.42663571276360
H            0.95945282747034        1.95449377444080       -1.15982988347343
H            1.46519703869263        2.72769066167217        0.41632504768950
H            3.12304667638834        0.71796979013489        0.79381130050229
H           -0.40727359353940       -0.32389929311489        2.35969708384140
26
 energy: -41.802977480665 gnorm: 0.052734488603 xtb: 6.7.1 (edcfbbe)
O            2.91442201340030       -0.71652050669497       -1.49060824163623
C            2.12445716357631       -0.75404188023188       -0.54802229790200
C            0.86238241868337       -1.47575400919708       -0.56625511190284
C           -0.07639282517921       -1.32637749723114        0.43322602521179
C           -1.45208870222036       -1.91747299581370        0.35337218775327
C           -2.46247955517280       -1.03589842369377       -0.40109341331497
C           -2.57878125856124        0.41523123212112        0.09309495665359
C           -1.49757722702725        1.29299477311925       -0.51061512860916
O           -1.49563615421613        1.51946793070046       -1.70921996410437
C           -0.46553361160016        1.86232762611321        0.39323483751295
C            0.72468225896051        2.20734876213154       -0.11954302911968
C            2.28819384766233       -0.00180957780536        0.66537243400085
O            1.41807562500606        0.03471790494940        1.61828978745908
C            0.27544073030478       -0.54927944233598        1.53687626437864
H            0.65629720012130       -2.07300104702607       -1.43882305053433
H           -1.40543363895641       -2.87349566065875       -0.16979087126374
H           -1.82553174888779       -2.09188890362535        1.36347818757483
H           -3.43747004454921       -1.51275366494709       -0.28287228178791
H           -2.22721706139253       -1.01550655022050       -1.46723413459110
H           -2.59460595555039        0.46098603789711        1.18243911232002
H           -3.53031473618218        0.79755599545550       -0.29636894485029
H           -0.75512264959956        2.11599077241555        1.40956612597020
H            0.95841036539024        1.99187926825045       -1.15198135356956
H            1.46732181939163        2.74574239295218        0.44348600967854
H            3.16744510773067        0.65373237240683        0.81319500347192
H           -0.39697038113232       -0.37459190903092        2.38601489120068
26
 energy: -41.804611801303 gnorm: 0.035724993561 xtb: 6.7.1 (edcfbbe)
O            2.91256079558580       -0.73996580253900       -1.48788220782922
C            2.11504702938278       -0.75199991928685       -0.54930918292001
C            0.84704023627534       -1.46760172235378       -0.56590975802648
C           -0.08461558357791       -1.32378677165031        0.43807739366299
C           -1.45659951026616       -1.92044317529810        0.35925155430108
C           -2.45845820200124       -1.03776649127779       -0.40413976082793
C           -2.56768726870731        0.41135472279863        0.09740750980175
C           -1.48474665319319        1.27345779547983       -0.52466020677696
O           -1.47949216624315        1.47892858621528       -1.72594518354249
C           -0.47169437201322        1.86164895217032        0.37527091824903
C            0.72116577220105        2.20859136963403       -0.10985042063166
C            2.29980968688779        0.00135760204094        0.65672895361580
O            1.43330473615734        0.03550196417248        1.63763117121420
C            0.25907624285615       -0.53997661303373        1.54595108673277
H            0.62855628708325       -2.05103691256069       -1.44597240039598
H           -1.40748287836548       -2.87875467097580       -0.15885220098286
H           -1.83423635293255       -2.09133494042740        1.36857842061900
H           -3.43776997159359       -1.51086371337082       -0.30876516132992
H           -2.19915669309986       -1.00741372016392       -1.46560090600956
H           -2.55473454058184        0.45875320817592        1.18753943346757
H           -3.52301616542278        0.80083786333817       -0.26677622185205
H           -0.78306383957955        2.10119489347059        1.39146910457333
H            0.95653835737845        2.02314875540938       -1.15385985388428
H            1.45877998348840        2.76678463357415        0.47195724754851
H            3.14530692505399        0.63415035943902        0.80679831962199
H           -0.37845885477252       -0.35518325298054        2.37008035160157
26
 energy: -41.806281397623 gnorm: 0.042862632573 xtb: 6.7.1 (edcfbbe)
O            2.91516037632374       -0.76389184275968       -1.48140238950363
C            2.09411701456077       -0.72879969371428       -0.56323728975478
C            0.82174960243126       -1.43531154555101       -0.57975652435094
C           -0.10013941095939       -1.29773835482574        0.42836275731981
C           -1.46151117509246       -1.91657686147570        0.36489817572511
C           -2.46172107495977       -1.04250035770025       -0.40841497020126
C           -2.55826077367238        0.40662694152783        0.09699183760776
C           -1.47864403386086        1.26236362111821       -0.54323708653202
O           -1.46879715033163        1.45023204036895       -1.74628978365076
C           -0.49118900352249        1.88699482198163        0.34738026511623
C            0.70483918727379        2.24121809134467       -0.11766725555667
C            2.29259268338715        0.00725622020454        0.65111207421684
O            1.43936893356492        0.05495581554540        1.65625892349991
C            0.26100931683536       -0.53931780634972        1.54173280772097
H            0.60120670305781       -2.02420139586973       -1.45394920220467
H           -1.40180729652199       -2.88026416715925       -0.14141126020001
H           -1.83450744822710       -2.08053417912112        1.37676957174514
H           -3.44327241474692       -1.51455046514548       -0.33283085782652
H           -2.18076876944873       -1.00782015944561       -1.46449208570019
H           -2.52063477757238        0.45303868859447        1.18645805080215
H           -3.51572913771272        0.80864304473181       -0.23994163926463
H           -0.78314822500514        2.05531174307249        1.35732550074691
H            0.95338351650776        2.05113563497555       -1.14223211031817
H            1.44206090701405        2.74076834396022        0.48612073945958
H            3.19322967459119        0.59850207623479        0.82654156471962
H           -0.36261422391385       -0.40595725454295        2.43412818638455
26
 energy: -41.807354839766 gnorm: 0.025516555805 xtb: 6.7.1 (edcfbbe)
O            2.92026720826701       -0.77586977211992       -1.47687983018152
C            2.09434298172736       -0.73961896342435       -0.55859864592051
C            0.81571482349373       -1.43182980794018       -0.57835987496976
C           -0.09812575880738       -1.30151675176237        0.43924823224284
C           -1.46387434007751       -1.91568950063223        0.37469236402081
C           -2.45912776541879       -1.04510070179198       -0.41063586263972
C           -2.55181693110188        0.40452566815774        0.09259218674780
C           -1.47767632997691        1.26455168384904       -0.55284800674098
O           -1.45580752357528        1.43597988814914       -1.75842414012899
C           -0.49670695320254        1.89859681554660        0.34310000911493
C            0.70167524125546        2.26365909900673       -0.11281659643916
C            2.29170778166701        0.01821055164486        0.65296546381604
O            1.42513642932979        0.05154594054115        1.63009986373314
C            0.26382995556844       -0.54687283562014        1.55460921675449
H            0.58494900527757       -2.01459485444385       -1.46076820304599
H           -1.40226382713109       -2.88317930575582       -0.12455827225587
H           -1.84075799182678       -2.07216410409607        1.38651879393742
H           -3.44115897160164       -1.51584550138081       -0.34126551884913
H           -2.17313022859484       -1.01485824130289       -1.46434369924015
H           -2.50525105556632        0.44638616779758        1.18063818559149
H           -3.51223660558328        0.81108775146310       -0.23226300633401
H           -0.79336072855438        2.05567256600816        1.35781865518939
H            0.95579627296004        2.08582640709239       -1.14190109551806
H            1.43719503173276        2.71465964817178        0.49802813685039
H            3.19157970048169        0.59590172757148        0.81829304699778
H           -0.35492642074228       -0.40988057472913        2.42427659726763
26
 energy: -41.808227129888 gnorm: 0.019596673375 xtb: 6.7.1 (edcfbbe)
O            2.91381066057101       -0.77961604055448       -1.48047259266276
C            2.08309787068082       -0.73594193221548       -0.56352820131821
C            0.79783871541758       -1.41115862174391       -0.58842859234050
C           -0.10439316854829       -1.29541469854024        0.44392610713373
C           -1.46986976815423       -1.91419087186899        0.38448899435090
C           -2.46028311438658       -1.05061232458031       -0.41447764568805
C           -2.54698056571256        0.39968713515632        0.08462566383488
C           -1.47439874262280        1.25551537866103       -0.56752424914585
O           -1.43263942456749        1.39761207563624       -1.77914032783791
C           -0.49884698511848        1.90057461578525        0.32961604926887
C            0.70070801159689        2.27388762140421       -0.11211258104786
C            2.29170298665488        0.00929571656246        0.64650380183610
O            1.43783795559579        0.03129105641997        1.63372167372927
C            0.27021538364304       -0.55365253469916        1.56152511621238
H            0.56735898331817       -1.99855525231751       -1.46336530330417
H           -1.40502996892362       -2.88753712296892       -0.10372334793704
H           -1.84965186791642       -2.05844677412548        1.39739730148990
H           -3.44258626780251       -1.51914756518304       -0.34858127950140
H           -2.16869067762776       -1.02835068731137       -1.46600707946859
H           -2.48888182323698        0.44110031062637        1.17135437915586
H           -3.50882528563028        0.81167211660437       -0.22996156477857
H           -0.81804373985008        2.07806625751004        1.35776776898556
H            0.97137289373678        2.11217130773896       -1.14182665653079
H            1.42768278514713        2.76505001705859        0.51686623413687
H            3.20054859002104        0.56830797853149        0.82469233092500
H           -0.33708043628513       -0.43202416158640        2.44588200050273
26
 energy: -41.808578462452 gnorm: 0.016194065790 xtb: 6.7.1 (edcfbbe)
O            2.91205247791760       -0.79688658739214       -1.47538005335365
C            2.07089350364122       -0.73442156164687       -0.56851038893721
C            0.78212131308156       -1.39571625290510       -0.59459771983230
C           -0.11013194370676       -1.29235653541190        0.44739545011362
C           -1.47590430101929       -1.91325136693435        0.39315819789692
C           -2.45967768438808       -1.05728486949161       -0.42196498864435
C           -2.53938344856125        0.39320492642129        0.07493402923440
C           -1.46968626346162        1.24651380363797       -0.58232937660044
O           -1.42268452867825        1.38288830296734       -1.78592454577926
C           -0.50506506157847        1.90636460557635        0.32370377936960
C            0.69020015582889        2.30156047279260       -0.10914321105381
C            2.28521460114723        0.00047308503493        0.64652530181982
O            1.44504470098039        0.03092193763952        1.64027298141471
C            0.27644461696278       -0.55037728322749        1.57023141303290
H            0.54834747436639       -1.98367263749135       -1.46737110717652
H           -1.40848778255169       -2.89533755476321       -0.07775153532117
H           -1.85998365089241       -2.03978918789049        1.40728496232479
H           -3.44372309499297       -1.52165304805810       -0.35938580480486
H           -2.15932650211400       -1.04333685750093       -1.47108185001840
H           -2.46660966721665        0.43275761032435        1.16087846719496
H           -3.50308237981057        0.81235942110848       -0.22572241628044
H           -0.80712933373509        2.04035427556663        1.34939133957268
H            0.97217704049178        2.16336396970880       -1.15116017020073
H            1.41449046865043        2.80020362343344        0.53043386244313
H            3.21146099629622        0.53489241789304        0.82835422366164
H           -0.32159870665751       -0.44219170939117        2.45697715992433
26
 energy: -41.808769345837 gnorm: 0.019622277616 xtb: 6.7.1 (edcfbbe)
O            2.91074843147193       -0.81137441350783       -1.47316507921714
C            2.06386321822845       -0.73756214359319       -0.57208111872113
C            0.76832041213778       -1.38110198432954       -0.60147628012468
C           -0.11404444093613       -1.28535611709359        0.44710427562052
C           -1.47934015436139       -1.90887550453678        0.40067031769674
C           -2.45927738155130       -1.06135378544449       -0.42533869006650
C           -2.53366031648868        0.39011325310787        0.06842711258988
C           -1.46405308932930        1.23813393506765       -0.59334663135398
O           -1.39672806604666        1.34050361795703       -1.80437295996107
C           -0.51631721008582        1.92688416655895        0.30817558963760
C            0.67945395629826        2.33222554888656       -0.11339902728531
C            2.28669674213951       -0.00235886580040        0.64706464325378
O            1.45575514677674        0.02038738341602        1.64920430510557
C            0.28681979670256       -0.56110815920496        1.57689149822106
H            0.52214154437030       -1.96097312964786       -1.48249566380048
H           -1.41029258799374       -2.89945925827697       -0.05278162919066
H           -1.86521064333159       -2.01867519288078        1.41599974550341
H           -3.44473085838328       -1.52318786365570       -0.36616847162449
H           -2.15081658791419       -1.05529221645588       -1.47243615046068
H           -2.45487457482474        0.43248840733149        1.15260210126850
H           -3.49540080821834        0.81307575310968       -0.22816110623944
H           -0.81575846996632        2.04924267733986        1.33751837638010
H            0.98518356145700        2.17852316171395       -1.12302690268362
H            1.39217744076407        2.82226373332911        0.54077104871317
H            3.20704554115508        0.51571320438015        0.82045912347805
H           -0.30172760207035       -0.47329320777030        2.48257957326124
26
 energy: -41.808950051226 gnorm: 0.020016959784 xtb: 6.7.1 (edcfbbe)
O            2.90198885320133       -0.80384088025888       -1.47832384524086
C            2.05812511705592       -0.73080389945928       -0.57532995606219
C            0.76079426107163       -1.36866419674642       -0.60391101008493
C           -0.11705770283883       -1.27724387862478        0.44748141803696
C           -1.47975188542761       -1.90487194313808        0.40514011373549
C           -2.46032225732957       -1.06472575130063       -0.42505267534362
C           -2.53355122898818        0.38832861897109        0.06435129499489
C           -1.45989364645497        1.23103177382889       -0.59628804769099
O           -1.37905437088358        1.31701239745109       -1.81072840517367
C           -0.51946560715689        1.93129998689276        0.30440746013482
C            0.67386439423280        2.34637749388066       -0.11240763587393
C            2.29303133586732       -0.01248288652008        0.64710051876833
O            1.46505207327379        0.00007503382498        1.65877759481270
C            0.28488568137825       -0.57330447979866        1.58327119632888
H            0.50905191633951       -1.94306284214864       -1.48869700034066
H           -1.40825909812917       -2.89895833875926       -0.03957311752107
H           -1.86449789421850       -2.00755454705684        1.42098494814448
H           -3.44563540404267       -1.52730375953848       -0.36551024250833
H           -2.14989572008738       -1.06259302575915       -1.47171337870788
H           -2.45842859330681        0.43329515350770        1.14776775394999
H           -3.49230882838207        0.81150860792032       -0.23685950749333
H           -0.82914686025722        2.06566989445513        1.33803194521637
H            0.97875526028871        2.20538353900284       -1.13622830788366
H            1.38176676638830        2.81379901462538        0.54287724231217
H            3.24110230466221        0.49252174474423        0.83384509948008
H           -0.29517586625648       -0.48130982999586        2.48580454401050
26
 energy: -41.809085529311 gnorm: 0.015365031760 xtb: 6.7.1 (edcfbbe)
O            2.89799622037546       -0.79396232970906       -1.48192143573944
C            2.06273743909904       -0.73548515131630       -0.57098476225307
C            0.76273538944468       -1.37127685616924       -0.60224047949557
C           -0.11541258470624       -1.28181298435707        0.45030675147486
C           -1.48036835849535       -1.90437848006042        0.40679879080781
C           -2.46078295556088       -1.06435091351600       -0.42424563552281
C           -2.53413252852841        0.39055139822689        0.05979483048928
C           -1.45620001399640        1.22982834854921       -0.59801971353989
O           -1.37831589483607        1.32729009800326       -1.80463585650535
C           -0.51371259789211        1.92320121314085        0.30915273440953
C            0.67626909842423        2.34459047083271       -0.11130567481599
C            2.29980956102200       -0.01424786288055        0.65071878410611
O            1.46496936597516       -0.00608111447209        1.65389836874715
C            0.28952168720451       -0.58138120151574        1.58530489219491
H            0.51253401433938       -1.94382898456697       -1.48472076753602
H           -1.41149246600121       -2.89777006827759       -0.03820369480214
H           -1.86558447150345       -2.00663069173879        1.42222957122083
H           -3.44638356785339       -1.52589826212975       -0.36000273972453
H           -2.15542816546643       -1.06350348009788       -1.47196008138556
H           -2.46475756743748        0.43692431773538        1.14425783900750
H           -3.49192914516365        0.81332603617704       -0.24766512418121
H           -0.82323593892889        2.05578763122329        1.33804985931638
H            0.97556933209152        2.21391739520627       -1.15036384342774
H            1.38128251660958        2.82965229786835        0.54024739089875
H            3.22655167397940        0.50101274160806        0.82893275142723
H           -0.29626704219518       -0.49589056776380        2.49579524482948
26
 energy: -41.809128358643 gnorm: 0.018731484793 xtb: 6.7.1 (edcfbbe)
O            2.88981177026477       -0.78380376676234       -1.49156178240735
C            2.06234662708323       -0.73721563867293       -0.57345540891949
C            0.76371379161740       -1.37462059576779       -0.60226733698624
C           -0.11198030940295       -1.29334985523890        0.45593364230777
C           -1.48140441790473       -1.90683167899788        0.41101815293471
C           -2.46029014947529       -1.06549372767737       -0.42133589756465