26
 energy: -41.773581568323 gnorm: 0.195323836458 xtb: 6.7.1 (edcfbbe)
O            2.93258500000000       -0.67839800000000       -1.43445900000000
C            2.04891400000000       -0.58406400000000       -0.59853600000000
C            0.86796400000000       -1.46479900000000       -0.55394100000000
C           -0.12595800000000       -1.21891400000000        0.32902600000000
C           -1.46057200000000       -1.90171400000000        0.31303500000000
C           -2.53781500000000       -1.05869900000000       -0.40356400000000
C           -2.64122400000000        0.40189400000000        0.08235500000000
C           -1.42459100000000        1.20392300000000       -0.35168300000000
O           -1.37926500000000        1.72989300000000       -1.44505300000000
C           -0.33024334190000        1.55733328880000        0.48773504050000
C            0.89439711780000        1.92474039890000       -0.08409776770000
C            2.23321488220000        0.29394660110000        0.53886176770000
O            1.44674500000000        0.04141600000000        1.64796900000000
C            0.14462634190000       -0.35963828880000        1.45712595950000
H            0.80280300000000       -2.26385100000000       -1.29761700000000
H           -1.37880500000000       -2.87596400000000       -0.19128500000000
H           -1.78371800000000       -2.08829100000000        1.35106800000000
H           -3.51380200000000       -1.54838800000000       -0.26534200000000
H           -2.33242000000000       -1.05132800000000       -1.48609200000000
H           -2.76244000000000        0.43292300000000        1.17707100000000
H           -3.52333600000000        0.86964800000000       -0.37804200000000
H           -0.56571800000000        1.99289200000000        1.41338900000000
H            1.02057100000000        1.79094300000000       -1.08276000000000
H            1.44975600000000        2.63576500000000        0.42131200000000
H            3.06468300000000        0.85620000000000        0.65144100000000
H           -0.49037900000000       -0.25788600000000        2.24130100000000
26
 energy: -41.799747650800 gnorm: 0.060406027685 xtb: 6.7.1 (edcfbbe)
O            2.92477926917086       -0.66847906423554       -1.46192542300326
C            2.06893056896323       -0.63236071054567       -0.57538230750566
C            0.86315286234718       -1.45661145448096       -0.56686134349311
C           -0.11352587621739       -1.23064103248822        0.34709954381685
C           -1.45987592172701       -1.89541490926777        0.32071023521989
C           -2.52847934951837       -1.05578070800387       -0.40514075952976
C           -2.63087270628479        0.39811614113379        0.08660433021975
C           -1.45478502391078        1.23291941452037       -0.38482440554776
O           -1.43280126665090        1.69860873483112       -1.51644850069273
C           -0.33713190052804        1.57436103005515        0.48539782999142
C            0.88678975796197        1.93488751807220       -0.08205419605945
C            2.18433730236115        0.28234551625985        0.55264601428099
O            1.44383696169933        0.03769123556425        1.66301729786143
C            0.16770682834743       -0.33990851646208        1.43706289986324
H            0.78521418224479       -2.23003971418949       -1.32048172144478
H           -1.38215668256660       -2.86008362752483       -0.19002287976998
H           -1.78811868226836       -2.08414791321244        1.34813216363531
H           -3.49919707419062       -1.54238315919777       -0.26328572416069
H           -2.32329225740419       -1.04512566405776       -1.48078804895821
H           -2.74392731801625        0.43213687825882        1.17435669577889
H           -3.51697979249774        0.84872926713092       -0.37154584893872
H           -0.57353276252126        1.98726900500332        1.44799257447975
H            1.02065890457775        1.80098953909124       -1.12513866005246
H            1.48111864539803        2.64806516781536        0.43911985013875
H            3.08236893360742        0.83008675484146        0.69592038084793
H           -0.46824460237691       -0.28564672891145        2.28505800302230
26
 energy: -41.805845856198 gnorm: 0.025069297397 xtb: 6.7.1 (edcfbbe)
O            2.90542814878817       -0.65015136693561       -1.47002921498622
C            2.04486602759329       -0.60457580072944       -0.59031362064214
C            0.85138889684944       -1.42746175294725       -0.57453684571394
C           -0.11523773564748       -1.22253277724478        0.36041092132593
C           -1.45922742935280       -1.88859268191597        0.32847419748332
C           -2.51817858062066       -1.04928188459161       -0.40446025082737
C           -2.62263835933871        0.39987377334270        0.09086425560071
C           -1.46270996721252        1.22571021891467       -0.42686186229305
O           -1.46325321826977        1.64146507733798       -1.57750862952005
C           -0.34167650256324        1.57699780464624        0.46837648553000
C            0.88400884734835        1.93858109953887       -0.08776418412704
C            2.15700008027032        0.27680275982502        0.56873524697504
O            1.42559148619505        0.05572537582562        1.66720512608422
C            0.17266666410056       -0.32656981739191        1.43446379513676
H            0.76453778200384       -2.18515579362265       -1.33716150905810
H           -1.37555473376022       -2.84748406699174       -0.18508462007757
H           -1.79277753392907       -2.07323343404012        1.35026101693420
H           -3.48504945867290       -1.53488563794076       -0.26191090462753
H           -2.30546000931393       -1.03555305693902       -1.47470747699459
H           -2.70451792123709        0.43514762624722        1.17677520614396
H           -3.52305062570065        0.83360268377499       -0.35242478207913
H           -0.59350801240893        1.96475359116389        1.45077249814728
H            1.02007384777098        1.82748104187223       -1.15190275548804
H            1.50956984959240        2.64038115671828        0.44121288751215
H            3.12374580454284        0.74977494064146        0.76162876244904
H           -0.44006434702751       -0.34123607855832        2.33470425711214
26
 energy: -41.807395716691 gnorm: 0.021089487185 xtb: 6.7.1 (edcfbbe)
O            2.88685492091638       -0.61707061051725       -1.48109305997265
C            2.04067954157537       -0.59764248152026       -0.58473309955920
C            0.83025270856448       -1.39610954206240       -0.59019508412650
C           -0.12334107964364       -1.20889277320673        0.36475863216272
C           -1.46024834801808       -1.88480347748020        0.33822568036917
C           -2.51561638290861       -1.04972482093240       -0.40186778861924
C           -2.61360269091509        0.39949562561475        0.09306518348082
C           -1.45409381627865        1.20544557453532       -0.45398286234566
O           -1.45082665201556        1.57800132681590       -1.61689850597005
C           -0.34112843413282        1.56768516645815        0.45554792194951
C            0.88885743068262        1.93125315546402       -0.08425396262270
C            2.15499000696038        0.26908105967091        0.58712501043819
O            1.42013888068490        0.06138348476430        1.67794800748975
C            0.17293327722957       -0.32577201966138        1.44492528258934
H            0.72027186298043       -2.12804128378753       -1.37800020438268
H           -1.36982144564493       -2.84326568167881       -0.17374472638899
H           -1.79749046720728       -2.06493088209541        1.35948822936465
H           -3.48261454788812       -1.53525830869647       -0.26508899409881
H           -2.29260534670261       -1.03329782724268       -1.46986079845514
H           -2.66535274872140        0.43892757211351        1.18060427817689
H           -3.52480867807859        0.82933743928565       -0.33124745511202
H           -0.61577516617953        1.95029350766393        1.43339169038082
H            1.03148511617856        1.83414506553231       -1.15112773665969
H            1.51952425926998        2.63072341391454        0.44241318935499
H            3.12815856339288        0.72265510352469        0.79231642447632
H           -0.43084776410110       -0.35403478647650        2.35150274808032
26
 energy: -41.808559726257 gnorm: 0.014750047157 xtb: 6.7.1 (edcfbbe)
O            2.85866882102114       -0.57132567763971       -1.49571619482704
C            2.01970911434747       -0.56740200953697       -0.59514656791357
C            0.80600395497188       -1.35922172088592       -0.60470953629471
C           -0.13224422461006       -1.19842229169720        0.37056613403664
C           -1.46375786515484       -1.88187458269068        0.34839315550824
C           -2.51744850191808       -1.05362299179489       -0.40049902705819
C           -2.59964220909381        0.39697232191176        0.09564564738059
C           -1.43601709529148        1.17590150906174       -0.48196452147476
O           -1.41494968608114        1.48534812417537       -1.66166265706532
C           -0.33910599351708        1.55821870393028        0.44419436163313
C            0.89561835555185        1.92570267966236       -0.07430004053993
C            2.15647119443869        0.26168136738314        0.60346851529939
O            1.41593699055237        0.06080212809231        1.68774531209993
C            0.16940676232664       -0.32580070606114        1.45732036562925
H            0.67361248567917       -2.06291651243865       -1.41604454681289
H           -1.36605179301295       -2.84409810928884       -0.15444057630974
H           -1.80495841077766       -2.05300240467546        1.37030778636033
H           -3.48691875017129       -1.53656407891339       -0.27354075979278
H           -2.28170912223005       -1.03510374756779       -1.46619356438598
H           -2.61671886353083        0.44011079355260        1.18446842404532
H           -3.52003581994162        0.83159372858876       -0.30148636276796
H           -0.64743135010521        1.93773227900058        1.41094554651394
H            1.05418619579501        1.83415794166776       -1.13898774834405
H            1.53017024754611        2.62144110924213        0.44941004003354
H            3.13047934074218        0.69364137914389        0.82032743534759
H           -0.42730077753719       -0.35436623222211        2.36111737969945
26
 energy: -41.809094887477 gnorm: 0.009426989276 xtb: 6.7.1 (edcfbbe)
O            2.83646764144912       -0.53690869166534       -1.50867576550816
C            2.00313032600721       -0.54835422434962       -0.60405433043261
C            0.78610308630844       -1.33520060734454       -0.61579369391074
C           -0.14161156077060       -1.19316221351943        0.37035865881081
C           -1.46963740132358       -1.88420059684844        0.35629152533542
C           -2.52123251892857       -1.06008938983902       -0.40009815743758
C           -2.58567952730069        0.39316524045351        0.09352160727581
C           -1.41135956344819        1.14786352075628       -0.49571596256045
O           -1.36847941541074        1.41043372349912       -1.68381173755809
C           -0.33310217742880        1.55658967921992        0.44119479541974
C            0.90108525092269        1.93521341202007       -0.06469281655074
C            2.15326215694794        0.26149889161870        0.60642078832106
O            1.41119755002178        0.05724098652410        1.68908787651590
C            0.16204060900990       -0.32636216873221        1.46209142729872
H            0.64398159657166       -2.02491815526895       -1.43390844322230
H           -1.36847127333064       -2.85289010136874       -0.13385843319776
H           -1.81084441463931       -2.04389178263802        1.38060193985263
H           -3.49367015890683       -1.53726656996007       -0.27544331734055
H           -2.28126717316168       -1.04605995692075       -1.46501402431290
H           -2.58757151236250        0.43751140074402        1.18112273637738
H           -3.50498010502509        0.84111336486901       -0.28797722591919
H           -0.66761762336592        1.93366328294368        1.39858627839129
H            1.07311414453654        1.84343743540759       -1.12575773726446
H            1.53436647314337        2.62801407568195        0.46090517275478
H            3.12593758428056        0.67985709088038        0.82821817157488
H           -0.42918899379708       -0.35671464616323        2.36561866728777
26
 energy: -41.809460500676 gnorm: 0.012802188563 xtb: 6.7.1 (edcfbbe)
O            2.81571800149942       -0.50944363227003       -1.52558087891830
C            1.98816941751434       -0.53169465732796       -0.61681801499812
C            0.77174090822522       -1.31940406432730       -0.62410260859430
C           -0.14694966500065       -1.18978664007528        0.36924549161898
C           -1.47487722187286       -1.88465103402525        0.36408686370310
C           -2.52722779045761       -1.06738729425287       -0.39896725747340
C           -2.57687114923311        0.38951665707465        0.08579193279271
C           -1.39001602960052        1.12513527175598       -0.50251995155632
O           -1.31128621183785        1.33207524038434       -1.70199054794854
C           -0.33512545836732        1.56403915639253        0.44535218899319
C            0.90266974469161        1.94412420521853       -0.04680832198043
C            2.15449968383741        0.26209285644830        0.60206389189245
O            1.41419667115373        0.05145265591208        1.68606651662647
C            0.16006767389679       -0.32149488610691        1.46089292181718
H            0.62160726065205       -1.99946048216797       -1.44680396973952
H           -1.37349638086940       -2.86073047639706       -0.11197000151654
H           -1.81423378878505       -2.03202311123878        1.39112145973680
H           -3.50212930571421       -1.53807748345568       -0.26981612533054
H           -2.28838896196927       -1.06362097183952       -1.46409541647626
H           -2.57768335550024        0.43643016150688        1.17160413614687
H           -3.48798314749115        0.85156067953982       -0.29464878527414
H           -0.68986413530569        1.94119101008821        1.39385964856402
H            1.08605194452604        1.85360607581059       -1.10514184564506
H            1.53261900440241        2.63399301601014        0.48537535548515
H            3.13143199121990        0.66444245419005        0.82677433887108
H           -0.42666669961516       -0.35230170684749        2.36624697920430
26
 energy: -41.809810360570 gnorm: 0.009977305714 xtb: 6.7.1 (edcfbbe)
O            2.78843477491422       -0.47966577812079       -1.54506344185578
C            1.96906156025487       -0.51558159226743       -0.62932647260245
C            0.75645519953254       -1.30927734408614       -0.62962266848244
C           -0.15366216361283       -1.19027034245285        0.36988405886152
C           -1.48302966718056       -1.88654486234816        0.37327977903764
C           -2.53618124676805       -1.07778933063174       -0.39834351028149
C           -2.56405989337970        0.38399711707595        0.07124810047503
C           -1.35551352259911        1.09233615570920       -0.50946880085884
O           -1.24022351154947        1.25579470530773       -1.70691347719585
C           -0.32937154592726        1.56776627685494        0.44845544780795
C            0.90706962310102        1.96602386425187       -0.03278429058831
C            2.14867949061294        0.26710352269916        0.59403081501469
O            1.41554959150662        0.04480852392355        1.68368859431029
C            0.15724681738652       -0.32079645458545        1.46240932987668
H            0.60170389684336       -1.98285166347904       -1.45540365785506
H           -1.38235761654344       -2.87055454868053       -0.08703442461719
H           -1.81915353216204       -2.01953443918661        1.40351537662844
H           -3.51420326476136       -1.53812255890227       -0.25499041172884
H           -2.30433400194266       -1.09118306113012       -1.46491030718059
H           -2.57146110156944        0.43518345377794        1.15635401151871
H           -3.46129346410954        0.86668105509417       -0.31633350922348
H           -0.70070162208492        1.93506097996586        1.39379861567109
H            1.09770328179085        1.88781403255962       -1.09039667724077
H            1.52684886400585        2.65171617908792        0.51699120036123
H            3.12982413211871        0.65690540342765        0.81652314127219
H           -0.42705807787844       -0.34943629386438        2.36963117887662
26
 energy: -41.810019528070 gnorm: 0.018084056999 xtb: 6.7.1 (edcfbbe)
O            2.76460194217547       -0.46085877129746       -1.56833188920871
C            1.95590376803651       -0.50665894835190       -0.64303663225504
C            0.74453703144378       -1.30330794747806       -0.63808993442211
C           -0.15794484203467       -1.18939591805469        0.36914627406507
C           -1.48805278312207       -1.88637731150870        0.38199058726427
C           -2.54318269235140       -1.08381619292038       -0.39299636367969
C           -2.55808680635121        0.38294000290109        0.05748664350485
C           -1.32824052923449        1.06654540109869       -0.51196435735861
O           -1.16378914623291        1.16663846817416       -1.71936699762367
C           -0.33125147636875        1.57493212029988        0.45902593056595
C            0.90803184260065        1.98235298359993       -0.00953615423445
C            2.14665702279207        0.26892023112664        0.58303348471930
O            1.41855438702109        0.04523415320138        1.67702840216045
C            0.15957392194589       -0.31918835936722        1.46058176771917
H            0.58735191810865       -1.97627286515391       -1.46389900257084
H           -1.38806480720104       -2.87420582604573       -0.06953583540575
H           -1.82059127244137       -2.00985158992697        1.41419218641746
H           -3.52242933105262       -1.53676109597326       -0.23431700824779
H           -2.31972218692447       -1.11405123900380       -1.46117337144664
H           -2.58383042114218        0.44745757910480        1.14232608682841
H           -3.43935742367093        0.87721503427367       -0.35304605161579
H           -0.71476927687522        1.93940231969529        1.40029160931625
H            1.10562210755888        1.91505663912760       -1.06724610209648
H            1.51528069375051        2.66822931244713        0.55590889236706
H            3.13210137438918        0.65234421114435        0.79924703806312
H           -0.42293001482082       -0.34693939111246        2.37149879717533
26
 energy: -41.810231732495 gnorm: 0.006227130461 xtb: 6.7.1 (edcfbbe)
O            2.75952595704782       -0.46855117811113       -1.57764999130488
C            1.95634070434865       -0.51059220189759       -0.64796938634816
C            0.74690806598975       -1.31157572396008       -0.63750710277917
C           -0.15563635866063       -1.18983860533748        0.37023975372415
C           -1.48705330691916       -1.88385762151653        0.38604514951722
C           -2.54440791276394       -1.08424124086893       -0.38948403371838
C           -2.56190259152495        0.38543874809185        0.04491128721362
C           -1.32472716739081        1.06546180279441       -0.50929981964746
O           -1.14611594456611        1.16106724292453       -1.70810883695610
C           -0.33803665161538        1.57628412180773        0.46508331206766
C            0.90431284607713        1.98403557762857        0.00151677280567
C            2.14921006486607        0.27011085094833        0.57416795352003
O            1.42562270753563        0.04775849030153        1.67128983367717
C            0.16792868808708       -0.31868097802845        1.45824707348182
H            0.59258688286855       -1.99266417714469       -1.45875222453768
H           -1.38832229495888       -2.87077283848161       -0.06615529198521
H           -1.81892836878936       -2.00630781862630        1.41803379266554
H           -3.52265613251942       -1.53547542642093       -0.21975202249996
H           -2.32755943432302       -1.12484863476795       -1.45860637298173
H           -2.60943522963553        0.46333696415950        1.13017147932403
H           -3.43362499724627        0.87751704269908       -0.39085454744106
H           -0.71470312318861        1.93506757450683        1.41086991862549
H            1.10193431859206        1.92516730030057       -1.05715128809669
H            1.50397513125246        2.66961313385439        0.57765020182085
H            3.13640562289464        0.65947188017639        0.78141782754213
H           -0.41566847545919       -0.34334128503194        2.37086456231218
26
 energy: -41.810310869376 gnorm: 0.004254675203 xtb: 6.7.1 (edcfbbe)
O            2.74686199506013       -0.46091612124259       -1.58825579829336
C            1.94899855950633       -0.50569948097580       -0.65392391162645
C            0.74353133425302       -1.31228660592949       -0.63771450372463
C           -0.15719040543926       -1.18937027989372        0.37296605633707
C           -1.48797436376551       -1.88271945220820        0.39133687275549
C           -2.54653470051385       -1.08515347994203       -0.38529431691762
C           -2.55990827900309        0.38784833095507        0.03724545670069
C           -1.31280015515339        1.05485317196595       -0.51300601291702
O           -1.11943940836004        1.12946614661850       -1.71136825659427
C           -0.33572402170944        1.57247613059228        0.46628173437854
C            0.90481046998607        1.99319880663718        0.00748313466480
C            2.14462378325585        0.27196738154970        0.57093128538180
O            1.42882773465459        0.04230188804966        1.67068280043386
C            0.17131987567977       -0.32189649059755        1.46079962498759
H            0.58775292326439       -1.99325111861517       -1.46075951921077
H           -1.38932330008730       -2.86963409841993       -0.06078005909209
H           -1.81895810657962       -2.00365279446776        1.42374038651767
H           -3.52500622117552       -1.53356128896742       -0.20991408387730
H           -2.33235320571271       -1.13236163917297       -1.45450378648568
H           -2.62115008359109        0.47954262265479        1.12155627711201
H           -3.42578926043130        0.87738278014999       -0.41403811397793
H           -0.71481478877070        1.92357081757642        1.41498773365495
H            1.10386714174949        1.94629712544219       -1.05167423599657
H            1.49992763396699        2.67468536578197        0.59351011782122
H            3.13256840502590        0.66383983823104        0.77397288291246
H           -0.41015055611120       -0.34734455577198        2.37495623505669
26
 energy: -41.810338417142 gnorm: 0.002333191906 xtb: 6.7.1 (edcfbbe)
O            2.74314868326835       -0.46082961705765       -1.59251530016289
C            1.94775823646043       -0.50604458265101       -0.65640091749830
C            0.74283824349527       -1.31342164851093       -0.63746034344401
C           -0.15724736739431       -1.18970287988365        0.37415192579427
C           -1.48785781451567       -1.88199389844765        0.39368132176344
C           -2.54676156884319       -1.08460048832681       -0.38346543059596
C           -2.55994998779529        0.39036606942907        0.03365068041480
C           -1.30912424332928        1.05145949630471       -0.51481990697317
O           -1.11133699803752        1.11657303876865       -1.71235943731925
C           -0.33610018366284        1.57106992307257        0.46793346585239
C            0.90392763487781        1.99631590557357        0.01264495294075
C            2.14446779144661        0.27274122310264        0.56785108069621
O            1.42977077842299        0.04408579086837        1.66784709732060
C            0.17280504660271       -0.32336463472742        1.46120730772700
H            0.58588151440513       -1.99424173735429       -1.46000379711640
H           -1.39002906309071       -2.86927137861685       -0.05849127222160
H           -1.81852381122839       -2.00254512106233        1.42647934850565
H           -3.52529796053437       -1.53207346540188       -0.20719547430932
H           -2.33263630834185       -1.13356728640366       -1.45239750032172
H           -2.62620526480154        0.48883776553734        1.11645968583903
H           -3.42460182710004        0.87602514210487       -0.42341110118246
H           -0.71837170083632        1.91895850160467        1.41694738380824
H            1.10560740753524        1.95248748507293       -1.04549203610786
H            1.49856276578575        2.67529328349070        0.60044119215115
H            3.13186768344200        0.66724489549229        0.76828313039450
H           -0.40661868623248       -0.35021878197810        2.37565194404608
26
 energy: -41.810347767265 gnorm: 0.001532692383 xtb: 6.7.1 (edcfbbe)
O            2.74128517010134       -0.45909060196401       -1.59493407962996
C            1.94741585593970       -0.50515719557150       -0.65762690438629
C            0.74277983552729       -1.31308780841204       -0.63723438585042
C           -0.15682102388793       -1.18924035733000        0.37496455182815
C           -1.48767858494450       -1.88063345003368        0.39515247463083
C           -2.54678866862249       -1.08352650881959       -0.38248635243420
C           -2.56151595936226        0.39287149221064        0.03129139944785
C           -1.30885074384415        1.05093437851860       -0.51555002271336
O           -1.10713097301107        1.10849785649353       -1.71268589146820
C           -0.33708808111857        1.56917061788986        0.46846306763589
C            0.90228040052102        1.99555907751382        0.01489020790738
C            2.14575851041996        0.27339774631128        0.56684930054384
O            1.43255670107939        0.04273070398226        1.66725074218710
C            0.17472069259866       -0.32424806726784        1.46230353171690
H            0.58465865111177       -1.99340667915403       -1.45943020330306
H           -1.39106209457422       -2.86829974394328       -0.05700461939946
H           -1.81814752230957       -2.00137852836961        1.42815136534359
H           -3.52516653685986       -1.53109652345162       -0.20612459071622
H           -2.33213002903815       -1.13364997484992       -1.45128262512151
H           -2.63036136326960        0.49471688277250        1.11297488650142
H           -3.42527034912750        0.87589667305983       -0.42964861552295
H           -0.72125435840010        1.91582485598207        1.41657710927063
H            1.10505229568376        1.95463330696875       -1.04248541599222
H            1.49817656204009        2.67179429347170        0.60335225034512
H            3.13267943048023        0.66970851163771        0.76605870145644
H           -0.40212481713479       -0.35333795764531        2.37743211772385
26
 energy: -41.810349499075 gnorm: 0.001084617792 xtb: 6.7.1 (edcfbbe)
O            2.74082644440767       -0.45943383836798       -1.59570284055426
C            1.94708518473157       -0.50564028540129       -0.65844691306295
C            0.74252413751858       -1.31349824992417       -0.63743829337604
C           -0.15653477011985       -1.19001381270927        0.37510467465375
C           -1.48816053881799       -1.88036816852944        0.39582306606974
C           -2.54697272841760       -1.08372202772684       -0.38244201760671
C           -2.56156718861517        0.39309765039421        0.03058771140005
C           -1.30764182670750        1.04935416334303       -0.51614127539846
O           -1.10411914458150        1.10399314177212       -1.71272572685471
C           -0.33741059051205        1.56962647812281        0.46914711535986
C            0.90219682140843        1.99691750648816        0.01708585067742
C            2.14598771536574        0.27339662455308        0.56535104147074
O            1.43312005518723        0.04332130884010        1.66631527710163
C            0.17507025086781       -0.32402237890453        1.46203998014206
H            0.58335704423795       -1.99307117831821       -1.45997445661257
H           -1.39247695657199       -2.86853960267895       -0.05538591456789
H           -1.81853809254513       -2.00009268755164        1.42896937391677
H           -3.52549355694431       -1.53106666617882       -0.20569924107119
H           -2.33209325107221       -1.13472448811763       -1.45126556581623
H           -2.63094128577283        0.49523351479421        1.11220612707585
H           -3.42428145255810        0.87667031540889       -0.43181820892825
H           -0.72472605518747        1.91623074774538        1.41591434656754
H            1.10666345940447        1.95631328886559       -1.04011610138508
H            1.49730790156004        2.67366588529126        0.60576355011322
H            3.13314458342988        0.66996641208721        0.76418098937040
H           -0.40035315969722       -0.35401065329715        2.37788545131646
26
 energy: -41.810350150237 gnorm: 0.000316389283 xtb: 6.7.1 (edcfbbe)
O            2.74130961968247       -0.45931935982674       -1.59512697680707
C            1.94722621127750       -0.50552819245310       -0.65798440804322
C            0.74248694683555       -1.31314409501258       -0.63758548876607
C           -0.15658589398771       -1.18985789357542        0.37491522656591
C           -1.48829208694810       -1.88025123696651        0.39555999519546
C           -2.54696975563397       -1.08368282169561       -0.38276823399032