 Entering Gaussian System, Link 0=g16
 Initial command:
 /root/g16/l1.exe "/root/g16/scratch/gau_root_108003/Gau-108010.inp" -scrdir="/root/g16/scratch/gau_root_108003/"
 Entering Link 1 = /root/g16/l1.exe PID=    108012.
  
 Copyright (c) 1988,1990,1992,1993,1995,1998,2003,2009,2016,
            Gaussian, Inc.  All Rights Reserved.
  
 This is part of the Gaussian(R) 16 program.  It is based on
 the Gaussian(R) 09 system (copyright 2009, Gaussian, Inc.),
 the Gaussian(R) 03 system (copyright 2003, Gaussian, Inc.),
 the Gaussian(R) 98 system (copyright 1998, Gaussian, Inc.),
 the Gaussian(R) 94 system (copyright 1995, Gaussian, Inc.),
 the Gaussian 92(TM) system (copyright 1992, Gaussian, Inc.),
 the Gaussian 90(TM) system (copyright 1990, Gaussian, Inc.),
 the Gaussian 88(TM) system (copyright 1988, Gaussian, Inc.),
 the Gaussian 86(TM) system (copyright 1986, Carnegie Mellon
 University), and the Gaussian 82(TM) system (copyright 1983,
 Carnegie Mellon University). Gaussian is a federally registered
 trademark of Gaussian, Inc.
  
 This software contains proprietary and confidential information,
 including trade secrets, belonging to Gaussian, Inc.
  
 This software is provided under written license and may be
 used, copied, transmitted, or stored only in accord with that
 written license.
  
 The following legend is applicable only to US Government
 contracts under FAR:
  
                    RESTRICTED RIGHTS LEGEND
  
 Use, reproduction and disclosure by the US Government is
 subject to restrictions as set forth in subparagraphs (a)
 and (c) of the Commercial Computer Software - Restricted
 Rights clause in FAR 52.227-19.
  
 Gaussian, Inc.
 340 Quinnipiac St., Bldg. 40, Wallingford CT 06492
  
  
 ---------------------------------------------------------------
 Warning -- This program may not be used in any manner that
 competes with the business of Gaussian, Inc. or will provide
 assistance to any competitor of Gaussian, Inc.  The licensee
 of this program is prohibited from giving any competitor of
 Gaussian, Inc. access to this program.  By using this program,
 the user acknowledges that Gaussian, Inc. is engaged in the
 business of creating and licensing software in the field of
 computational chemistry and represents and warrants to the
 licensee that it is not a competitor of Gaussian, Inc. and that
 it will not use this program in any manner prohibited above.
 ---------------------------------------------------------------
  

 Cite this work as:
 Gaussian 16, Revision A.03,
 M. J. Frisch, G. W. Trucks, H. B. Schlegel, G. E. Scuseria, 
 M. A. Robb, J. R. Cheeseman, G. Scalmani, V. Barone, 
 G. A. Petersson, H. Nakatsuji, X. Li, M. Caricato, A. V. Marenich, 
 J. Bloino, B. G. Janesko, R. Gomperts, B. Mennucci, H. P. Hratchian, 
 J. V. Ortiz, A. F. Izmaylov, J. L. Sonnenberg, D. Williams-Young, 
 F. Ding, F. Lipparini, F. Egidi, J. Goings, B. Peng, A. Petrone, 
 T. Henderson, D. Ranasinghe, V. G. Zakrzewski, J. Gao, N. Rega, 
 G. Zheng, W. Liang, M. Hada, M. Ehara, K. Toyota, R. Fukuda, 
 J. Hasegawa, M. Ishida, T. Nakajima, Y. Honda, O. Kitao, H. Nakai, 
 T. Vreven, K. Throssell, J. A. Montgomery, Jr., J. E. Peralta, 
 F. Ogliaro, M. J. Bearpark, J. J. Heyd, E. N. Brothers, K. N. Kudin, 
 V. N. Staroverov, T. A. Keith, R. Kobayashi, J. Normand, 
 K. Raghavachari, A. P. Rendell, J. C. Burant, S. S. Iyengar, 
 J. Tomasi, M. Cossi, J. M. Millam, M. Klene, C. Adamo, R. Cammi, 
 J. W. Ochterski, R. L. Martin, K. Morokuma, O. Farkas, 
 J. B. Foresman, and D. J. Fox, Gaussian, Inc., Wallingford CT, 2016.
 
 ******************************************
 Gaussian 16:  ES64L-G16RevA.03 25-Dec-2016
                 1-Feb-2026 
 ******************************************
 %chk=ts_guess.chk
 %mem=64GB
 %nprocshared=16
 Will use up to   16 processors via shared memory.
 -------------------------------------
 #p Opt=(TS, CalcFC, NoEigenTest) Freq
 -------------------------------------
 1/5=1,10=4,11=1,18=20,38=1/1,3;
 2/9=110,12=2,17=6,18=5,40=1/2;
 3/11=9,25=1,30=1,71=2,140=1/1,2,3;
 4//1;
 5/5=2,38=5/2;
 8/6=4,10=90,11=11/1;
 11/6=1,8=1,9=11,15=111,16=1/1,2,10;
 10/6=1,13=1/2;
 6/7=2,8=2,9=2,10=2,28=1/1;
 7/10=1,18=20,25=1/1,2,3,16;
 1/5=1,10=4,11=1,18=20/3(2);
 2/9=110/2;
 99//99;
 2/9=110/2;
 3/11=9,25=1,30=1,71=1/1,2,3;
 4/5=5,16=3,69=1/1;
 5/5=2,38=5/2;
 7//1,2,3,16;
 1/5=1,11=1,18=20/3(-5);
 2/9=110/2;
 6/7=2,8=2,9=2,10=2,19=2,28=1/1;
 99/9=1/99;
 Leave Link    1 at Sun Feb  1 14:24:32 2026, MaxMem=  8589934592 cpu:               0.2 elap:               0.0
 (Enter /root/g16/l101.exe)
 --------
 ts_guess
 --------
 Symbolic Z-matrix:
 Charge =  0 Multiplicity = 1
 O                     2.74131  -0.45931  -1.59513 
 C                     1.94723  -0.50552  -0.65799 
 C                     0.74249  -1.31314  -0.63759 
 C                    -0.15658  -1.18986   0.37491 
 C                    -1.48828  -1.88026   0.39556 
 C                    -2.54697  -1.08369  -0.38277 
 C                    -2.56165   0.3928    0.03099 
 C                    -1.30816   1.04985  -0.51564 
 O                    -1.10487   1.10517  -1.71213 
 C                    -0.33694   1.56922   0.46895 
 C                     0.90235   1.99629   0.01596 
 C                     2.14593   0.27341   0.56591 
 O                     1.43305   0.04303   1.66693 
 C                     0.17499  -0.32427   1.46238 
 H                     0.58349  -1.99278  -1.46012 
 H                    -1.39251  -2.86846  -0.05547 
 H                    -1.8186   -1.99971   1.4287 
 H                    -3.52547  -1.53125  -0.20643 
 H                    -2.332    -1.13416  -1.45154 
 H                    -2.6308    0.49409   1.11277 
 H                    -3.4244    0.87673  -0.4309 
 H                    -0.72413   1.91607   1.41555 
 H                     1.10625   1.95584  -1.04147 
 H                     1.49774   2.67325   0.60455 
 H                     3.13281   0.67051   0.76485 
 H                    -0.40029  -0.35431   2.37832 
 
 ITRead=  0  0  0  0  0  0  0  0  0  0  0  0  0  0  0  0  0  0  0  0
 ITRead=  0  0  0  0  0  0
 MicOpt= -1 -1 -1 -1 -1 -1 -1 -1 -1 -1 -1 -1 -1 -1 -1 -1 -1 -1 -1 -1
 MicOpt= -1 -1 -1 -1 -1 -1
 NAtoms=     26 NQM=       26 NQMF=       0 NMMI=      0 NMMIF=      0
                NMic=       0 NMicF=      0.
                    Isotopes and Nuclear Properties:
 (Nuclear quadrupole moments (NQMom) in fm**2, nuclear magnetic moments (NMagM)
  in nuclear magnetons)

  Atom         1           2           3           4           5           6           7           8           9          10
 IAtWgt=          16          12          12          12          12          12          12          12          16          12
 AtmWgt=  15.9949146  12.0000000  12.0000000  12.0000000  12.0000000  12.0000000  12.0000000  12.0000000  15.9949146  12.0000000
 NucSpn=           0           0           0           0           0           0           0           0           0           0
 AtZEff=  -0.0000000  -0.0000000  -0.0000000  -0.0000000  -0.0000000  -0.0000000  -0.0000000  -0.0000000  -0.0000000  -0.0000000
 NQMom=    0.0000000   0.0000000   0.0000000   0.0000000   0.0000000   0.0000000   0.0000000   0.0000000   0.0000000   0.0000000
 NMagM=    0.0000000   0.0000000   0.0000000   0.0000000   0.0000000   0.0000000   0.0000000   0.0000000   0.0000000   0.0000000
 AtZNuc=   8.0000000   6.0000000   6.0000000   6.0000000   6.0000000   6.0000000   6.0000000   6.0000000   8.0000000   6.0000000

  Atom        11          12          13          14          15          16          17          18          19          20
 IAtWgt=          12          12          16          12           1           1           1           1           1           1
 AtmWgt=  12.0000000  12.0000000  15.9949146  12.0000000   1.0078250   1.0078250   1.0078250   1.0078250   1.0078250   1.0078250
 NucSpn=           0           0           0           0           1           1           1           1           1           1
 AtZEff=  -0.0000000  -0.0000000  -0.0000000  -0.0000000  -0.0000000  -0.0000000  -0.0000000  -0.0000000  -0.0000000  -0.0000000
 NQMom=    0.0000000   0.0000000   0.0000000   0.0000000   0.0000000   0.0000000   0.0000000   0.0000000   0.0000000   0.0000000
 NMagM=    0.0000000   0.0000000   0.0000000   0.0000000   2.7928460   2.7928460   2.7928460   2.7928460   2.7928460   2.7928460
 AtZNuc=   6.0000000   6.0000000   8.0000000   6.0000000   1.0000000   1.0000000   1.0000000   1.0000000   1.0000000   1.0000000

  Atom        21          22          23          24          25          26
 IAtWgt=           1           1           1           1           1           1
 AtmWgt=   1.0078250   1.0078250   1.0078250   1.0078250   1.0078250   1.0078250
 NucSpn=           1           1           1           1           1           1
 AtZEff=  -0.0000000  -0.0000000  -0.0000000  -0.0000000  -0.0000000  -0.0000000
 NQMom=    0.0000000   0.0000000   0.0000000   0.0000000   0.0000000   0.0000000
 NMagM=    2.7928460   2.7928460   2.7928460   2.7928460   2.7928460   2.7928460
 AtZNuc=   1.0000000   1.0000000   1.0000000   1.0000000   1.0000000   1.0000000
 Leave Link  101 at Sun Feb  1 14:24:33 2026, MaxMem=  8589934592 cpu:               7.5 elap:               0.5
 (Enter /root/g16/l103.exe)

 GradGradGradGradGradGradGradGradGradGradGradGradGradGradGradGradGradGrad
 Berny optimization.
 Initialization pass.
                           ----------------------------
                           !    Initial Parameters    !
                           ! (Angstroms and Degrees)  !
 --------------------------                            --------------------------
 ! Name  Definition              Value          Derivative Info.                !
 --------------------------------------------------------------------------------
 ! R1    R(1,2)                  1.2292         calculate D2E/DX2 analytically  !
 ! R2    R(2,3)                  1.4505         calculate D2E/DX2 analytically  !
 ! R3    R(2,12)                 1.4643         calculate D2E/DX2 analytically  !
 ! R4    R(3,4)                  1.3597         calculate D2E/DX2 analytically  !
 ! R5    R(3,15)                 1.0788         calculate D2E/DX2 analytically  !
 ! R6    R(4,5)                  1.5002         calculate D2E/DX2 analytically  !
 ! R7    R(4,14)                 1.4289         calculate D2E/DX2 analytically  !
 ! R8    R(5,6)                  1.5366         calculate D2E/DX2 analytically  !
 ! R9    R(5,16)                 1.0905         calculate D2E/DX2 analytically  !
 ! R10   R(5,17)                 1.0912         calculate D2E/DX2 analytically  !
 ! R11   R(6,7)                  1.5334         calculate D2E/DX2 analytically  !
 ! R12   R(6,18)                 1.0904         calculate D2E/DX2 analytically  !
 ! R13   R(6,19)                 1.0913         calculate D2E/DX2 analytically  !
 ! R14   R(7,8)                  1.5172         calculate D2E/DX2 analytically  !
 ! R15   R(7,20)                 1.0887         calculate D2E/DX2 analytically  !
 ! R16   R(7,21)                 1.0917         calculate D2E/DX2 analytically  !
 ! R17   R(8,9)                  1.2149         calculate D2E/DX2 analytically  !
 ! R18   R(8,10)                 1.4773         calculate D2E/DX2 analytically  !
 ! R19   R(10,11)                1.3869         calculate D2E/DX2 analytically  !
 ! R20   R(10,22)                1.0799         calculate D2E/DX2 analytically  !
 ! R21   R(11,23)                1.0777         calculate D2E/DX2 analytically  !
 ! R22   R(11,24)                1.0767         calculate D2E/DX2 analytically  !
 ! R23   R(12,13)                1.3317         calculate D2E/DX2 analytically  !
 ! R24   R(12,25)                1.0822         calculate D2E/DX2 analytically  !
 ! R25   R(13,14)                1.3264         calculate D2E/DX2 analytically  !
 ! R26   R(14,26)                1.082          calculate D2E/DX2 analytically  !
 ! A1    A(1,2,3)              124.6247         calculate D2E/DX2 analytically  !
 ! A2    A(1,2,12)             121.9768         calculate D2E/DX2 analytically  !
 ! A3    A(3,2,12)             113.3986         calculate D2E/DX2 analytically  !
 ! A4    A(2,3,4)              120.6095         calculate D2E/DX2 analytically  !
 ! A5    A(2,3,15)             117.5465         calculate D2E/DX2 analytically  !
 ! A6    A(4,3,15)             121.8332         calculate D2E/DX2 analytically  !
 ! A7    A(3,4,5)              123.7458         calculate D2E/DX2 analytically  !
 ! A8    A(3,4,14)             117.9188         calculate D2E/DX2 analytically  !
 ! A9    A(5,4,14)             118.3135         calculate D2E/DX2 analytically  !
 ! A10   A(4,5,6)              111.4731         calculate D2E/DX2 analytically  !
 ! A11   A(4,5,16)             109.4748         calculate D2E/DX2 analytically  !
 ! A12   A(4,5,17)             109.3974         calculate D2E/DX2 analytically  !
 ! A13   A(6,5,16)             108.7104         calculate D2E/DX2 analytically  !
 ! A14   A(6,5,17)             109.1328         calculate D2E/DX2 analytically  !
 ! A15   A(16,5,17)            108.6013         calculate D2E/DX2 analytically  !
 ! A16   A(5,6,7)              111.6582         calculate D2E/DX2 analytically  !
 ! A17   A(5,6,18)             108.8807         calculate D2E/DX2 analytically  !
 ! A18   A(5,6,19)             109.656          calculate D2E/DX2 analytically  !
 ! A19   A(7,6,18)             110.059          calculate D2E/DX2 analytically  !
 ! A20   A(7,6,19)             108.099          calculate D2E/DX2 analytically  !
 ! A21   A(18,6,19)            108.4312         calculate D2E/DX2 analytically  !
 ! A22   A(6,7,8)              108.1713         calculate D2E/DX2 analytically  !
 ! A23   A(6,7,20)             110.9955         calculate D2E/DX2 analytically  !
 ! A24   A(6,7,21)             108.6759         calculate D2E/DX2 analytically  !
 ! A25   A(8,7,20)             111.7273         calculate D2E/DX2 analytically  !
 ! A26   A(8,7,21)             107.9699         calculate D2E/DX2 analytically  !
 ! A27   A(20,7,21)            109.2061         calculate D2E/DX2 analytically  !
 ! A28   A(7,8,9)              120.8517         calculate D2E/DX2 analytically  !
 ! A29   A(7,8,10)             117.0843         calculate D2E/DX2 analytically  !
 ! A30   A(9,8,10)             122.0294         calculate D2E/DX2 analytically  !
 ! A31   A(8,10,11)            118.5577         calculate D2E/DX2 analytically  !
 ! A32   A(8,10,22)            117.4767         calculate D2E/DX2 analytically  !
 ! A33   A(11,10,22)           120.5153         calculate D2E/DX2 analytically  !
 ! A34   A(10,11,23)           118.5551         calculate D2E/DX2 analytically  !
 ! A35   A(10,11,24)           120.6109         calculate D2E/DX2 analytically  !
 ! A36   A(23,11,24)           117.0898         calculate D2E/DX2 analytically  !
 ! A37   A(2,12,13)            121.7603         calculate D2E/DX2 analytically  !
 ! A38   A(2,12,25)            118.2017         calculate D2E/DX2 analytically  !
 ! A39   A(13,12,25)           113.556          calculate D2E/DX2 analytically  !
 ! A40   A(12,13,14)           115.3479         calculate D2E/DX2 analytically  !
 ! A41   A(4,14,13)            120.3433         calculate D2E/DX2 analytically  !
 ! A42   A(4,14,26)            120.2682         calculate D2E/DX2 analytically  !
 ! A43   A(13,14,26)           112.4206         calculate D2E/DX2 analytically  !
 ! D1    D(1,2,3,4)           -172.5088         calculate D2E/DX2 analytically  !
 ! D2    D(1,2,3,15)             6.3169         calculate D2E/DX2 analytically  !
 ! D3    D(12,2,3,4)             7.4961         calculate D2E/DX2 analytically  !
 ! D4    D(12,2,3,15)         -173.6782         calculate D2E/DX2 analytically  !
 ! D5    D(1,2,12,13)         -167.4042         calculate D2E/DX2 analytically  !
 ! D6    D(1,2,12,25)          -17.4865         calculate D2E/DX2 analytically  !
 ! D7    D(3,2,12,13)           12.5911         calculate D2E/DX2 analytically  !
 ! D8    D(3,2,12,25)          162.5088         calculate D2E/DX2 analytically  !
 ! D9    D(2,3,4,5)            173.3619         calculate D2E/DX2 analytically  !
 ! D10   D(2,3,4,14)            -4.9019         calculate D2E/DX2 analytically  !
 ! D11   D(15,3,4,5)            -5.4126         calculate D2E/DX2 analytically  !
 ! D12   D(15,3,4,14)          176.3236         calculate D2E/DX2 analytically  !
 ! D13   D(3,4,5,6)            -84.2176         calculate D2E/DX2 analytically  !
 ! D14   D(3,4,5,16)            36.0961         calculate D2E/DX2 analytically  !
 ! D15   D(3,4,5,17)           154.9915         calculate D2E/DX2 analytically  !
 ! D16   D(14,4,5,6)            94.0399         calculate D2E/DX2 analytically  !
 ! D17   D(14,4,5,16)         -145.6464         calculate D2E/DX2 analytically  !
 ! D18   D(14,4,5,17)          -26.7511         calculate D2E/DX2 analytically  !
 ! D19   D(3,4,14,13)          -18.3607         calculate D2E/DX2 analytically  !
 ! D20   D(3,4,14,26)         -166.9358         calculate D2E/DX2 analytically  !
 ! D21   D(5,4,14,13)          163.2791         calculate D2E/DX2 analytically  !
 ! D22   D(5,4,14,26)           14.704          calculate D2E/DX2 analytically  !
 ! D23   D(4,5,6,7)            -49.1238         calculate D2E/DX2 analytically  !
 ! D24   D(4,5,6,18)          -170.8484         calculate D2E/DX2 analytically  !
 ! D25   D(4,5,6,19)            70.6634         calculate D2E/DX2 analytically  !
 ! D26   D(16,5,6,7)          -169.886          calculate D2E/DX2 analytically  !
 ! D27   D(16,5,6,18)           68.3894         calculate D2E/DX2 analytically  !
 ! D28   D(16,5,6,19)          -50.0988         calculate D2E/DX2 analytically  !
 ! D29   D(17,5,6,7)            71.8219         calculate D2E/DX2 analytically  !
 ! D30   D(17,5,6,18)          -49.9027         calculate D2E/DX2 analytically  !
 ! D31   D(17,5,6,19)         -168.3909         calculate D2E/DX2 analytically  !
 ! D32   D(5,6,7,8)             71.6957         calculate D2E/DX2 analytically  !
 ! D33   D(5,6,7,20)           -51.2124         calculate D2E/DX2 analytically  !
 ! D34   D(5,6,7,21)          -171.3226         calculate D2E/DX2 analytically  !
 ! D35   D(18,6,7,8)          -167.2626         calculate D2E/DX2 analytically  !
 ! D36   D(18,6,7,20)           69.8293         calculate D2E/DX2 analytically  !
 ! D37   D(18,6,7,21)          -50.2809         calculate D2E/DX2 analytically  !
 ! D38   D(19,6,7,8)           -49.0046         calculate D2E/DX2 analytically  !
 ! D39   D(19,6,7,20)         -171.9127         calculate D2E/DX2 analytically  !
 ! D40   D(19,6,7,21)           67.977          calculate D2E/DX2 analytically  !
 ! D41   D(6,7,8,9)             61.962          calculate D2E/DX2 analytically  !
 ! D42   D(6,7,8,10)          -115.9412         calculate D2E/DX2 analytically  !
 ! D43   D(20,7,8,9)          -175.576          calculate D2E/DX2 analytically  !
 ! D44   D(20,7,8,10)            6.5209         calculate D2E/DX2 analytically  !
 ! D45   D(21,7,8,9)           -55.4744         calculate D2E/DX2 analytically  !
 ! D46   D(21,7,8,10)          126.6224         calculate D2E/DX2 analytically  !
 ! D47   D(7,8,10,11)          170.6745         calculate D2E/DX2 analytically  !
 ! D48   D(7,8,10,22)          -30.1543         calculate D2E/DX2 analytically  !
 ! D49   D(9,8,10,11)           -7.2021         calculate D2E/DX2 analytically  !
 ! D50   D(9,8,10,22)          151.969          calculate D2E/DX2 analytically  !
 ! D51   D(8,10,11,23)           1.3838         calculate D2E/DX2 analytically  !
 ! D52   D(8,10,11,24)         158.9587         calculate D2E/DX2 analytically  !
 ! D53   D(22,10,11,23)       -157.1355         calculate D2E/DX2 analytically  !
 ! D54   D(22,10,11,24)          0.4394         calculate D2E/DX2 analytically  !
 ! D55   D(2,12,13,14)         -34.8955         calculate D2E/DX2 analytically  !
 ! D56   D(25,12,13,14)        173.9139         calculate D2E/DX2 analytically  !
 ! D57   D(12,13,14,4)          37.7749         calculate D2E/DX2 analytically  !
 ! D58   D(12,13,14,26)       -171.377          calculate D2E/DX2 analytically  !
 --------------------------------------------------------------------------------
 Trust Radius=3.00D-01 FncErr=1.00D-07 GrdErr=1.00D-07 EigMax=2.50D+02 EigMin=1.00D-04
 Number of steps in this run=    137 maximum allowed number of steps=    156.
 Search for a saddle point of order  1.
 GradGradGradGradGradGradGradGradGradGradGradGradGradGradGradGradGradGrad

 Leave Link  103 at Sun Feb  1 14:24:33 2026, MaxMem=  8589934592 cpu:               0.3 elap:               0.0
 (Enter /root/g16/l202.exe)
                          Input orientation:                          
 ---------------------------------------------------------------------
 Center     Atomic      Atomic             Coordinates (Angstroms)
 Number     Number       Type             X           Y           Z
 ---------------------------------------------------------------------
      1          8           0        2.741310   -0.459308   -1.595130
      2          6           0        1.947228   -0.505521   -0.657987
      3          6           0        0.742491   -1.313141   -0.637588
      4          6           0       -0.156581   -1.189859    0.374914
      5          6           0       -1.488285   -1.880258    0.395559
      6          6           0       -2.546965   -1.083693   -0.382769
      7          6           0       -2.561654    0.392805    0.030995
      8          6           0       -1.308163    1.049847   -0.515637
      9          8           0       -1.104869    1.105175   -1.712131
     10          6           0       -0.336938    1.569215    0.468948
     11          6           0        0.902348    1.996290    0.015961
     12          6           0        2.145929    0.273406    0.565910
     13          8           0        1.433047    0.043026    1.666932
     14          6           0        0.174988   -0.324274    1.462385
     15          1           0        0.583487   -1.992779   -1.460116
     16          1           0       -1.392510   -2.868462   -0.055471
     17          1           0       -1.818603   -1.999708    1.428704
     18          1           0       -3.525466   -1.531246   -0.206429
     19          1           0       -2.332004   -1.134163   -1.451539
     20          1           0       -2.630796    0.494090    1.112770
     21          1           0       -3.424398    0.876728   -0.430898
     22          1           0       -0.724132    1.916072    1.415553
     23          1           0        1.106252    1.955837   -1.041473
     24          1           0        1.497736    2.673250    0.604554
     25          1           0        3.132814    0.670507    0.764846
     26          1           0       -0.400287   -0.354307    2.378321
 ---------------------------------------------------------------------
                    Distance matrix (angstroms):
                    1          2          3          4          5
     1  O    0.000000
     2  C    1.229203   0.000000
     3  C    2.375120   1.450537   0.000000
     4  C    3.579463   2.441560   1.359665   0.000000
     5  C    4.885838   3.847415   2.522969   1.500170   0.000000
     6  C    5.461275   4.539581   3.307280   2.509839   1.536592
     7  C    5.611756   4.648838   3.778178   2.899566   2.540048
     8  C    4.454334   3.610679   3.131097   2.671237   3.073798
     9  O    4.153841   3.608443   3.227327   3.243793   3.674531
    10  C    4.225037   3.285107   3.270714   2.766562   3.637286
    11  C    3.465164   2.793750   3.377131   3.376644   4.570212
    12  C    2.358271   1.464286   2.436222   2.734809   4.227859
    13  O    3.550345   2.443468   2.761679   2.390865   3.721504
    14  C    3.994076   2.769415   2.389520   1.428905   2.515090
    15  H    2.650652   2.171436   1.078768   2.135349   2.783600
    16  H    5.026235   4.135258   2.704831   2.128487   1.090481
    17  H    5.684120   4.557231   3.361568   2.128062   1.091223
    18  H    6.507690   5.586269   4.295222   3.435679   2.152744
    19  H    5.120016   4.397356   3.185447   2.841038   2.163398
    20  H    6.091077   5.009302   4.208195   3.082509   2.730797
    21  H    6.415325   5.551266   4.711817   3.949525   3.468795
    22  H    5.168746   4.159309   4.098072   3.324433   4.004552
    23  H    2.968650   2.629180   3.313860   3.673732   4.848949
    24  H    4.024675   3.449730   4.243186   4.208695   5.449259
    25  H    2.645609   2.193880   3.408126   3.799096   5.291250
    26  H    5.066455   3.840944   3.364671   2.184303   2.728298
                    6          7          8          9         10
     6  C    0.000000
     7  C    1.533448   0.000000
     8  C    2.470683   1.517151   0.000000
     9  O    2.939046   2.380794   1.214903   0.000000
    10  C    3.556342   2.554429   1.477305   2.358423   0.000000
    11  C    4.641448   3.817158   2.462663   2.794514   1.386874
    12  C    4.976441   4.739380   3.701805   4.055737   2.802348
    13  O    4.616413   4.330851   3.645755   4.357436   2.626265
    14  C    3.374958   3.170534   2.828518   3.709301   2.198701
    15  H    3.433197   4.219755   3.705125   3.537142   4.154067
    16  H    2.150649   3.465579   3.946139   4.314748   4.591539
    17  H    2.156625   2.868769   3.652505   4.473764   3.981668
    18  H    1.090351   2.165012   3.416736   3.882930   4.498412
    19  H    1.091341   2.140625   2.587288   2.566788   3.869989
    20  H    2.175561   1.088704   2.170237   3.268324   2.613845
    21  H    2.148362   1.091721   2.124994   2.659692   3.289631
    22  H    3.944018   2.759317   2.195662   3.253448   1.079950
    23  H    4.797774   4.128776   2.631867   2.462207   2.124534
    24  H    5.607944   4.691273   3.429772   3.820922   2.145532
    25  H    6.054265   5.748271   4.637436   4.927709   3.596444
    26  H    3.572653   3.277136   3.342286   4.399809   2.711025
                   11         12         13         14         15
    11  C    0.000000
    12  C    2.194827   0.000000
    13  O    2.612008   1.331738   0.000000
    14  C    2.829525   2.246219   1.326447   0.000000
    15  H    4.265342   3.417835   3.826837   3.389954   0.000000
    16  H    5.379339   4.772630   4.407631   3.351690   2.577676
    17  H    5.036608   4.650696   3.847434   2.604346   3.757042
    18  H    5.665554   6.001500   5.529437   4.234983   4.320676
    19  H    4.734377   5.109132   5.028543   3.928343   3.039306
    20  H    3.992831   4.812989   4.126182   2.943531   4.809976
    21  H    4.491529   5.690885   5.356372   4.240578   5.035524
    22  H    2.147261   3.414308   2.867911   2.414490   5.025779
    23  H    1.077673   2.548565   3.331831   3.512188   4.005011
    24  H    1.076663   2.486141   2.837412   3.386839   5.183680
    25  H    2.700650   1.082223   2.024031   3.197638   4.306113
    26  H    3.578114   3.187800   2.006255   1.082026   4.287889
                   16         17         18         19         20
    16  H    0.000000
    17  H    1.771740   0.000000
    18  H    2.521991   2.409668   0.000000
    19  H    2.416495   3.050992   1.769838   0.000000
    20  H    3.768938   2.641686   2.577345   3.052239   0.000000
    21  H    4.277379   3.782933   2.420525   2.505737   1.777393
    22  H    5.049991   4.065879   4.728880   4.484351   2.397723
    23  H    5.521764   5.504806   5.857462   4.640890   4.554447
    24  H    6.284880   5.789116   6.600609   5.778479   4.695934
    25  H    5.803083   5.664564   7.079816   6.167125   5.776797
    26  H    3.637145   2.370810   4.222898   4.359763   2.701216
                   21         22         23         24         25
    21  H    0.000000
    22  H    3.432354   0.000000
    23  H    4.697240   3.064125   0.000000
    24  H    5.341072   2.483492   1.837756   0.000000
    25  H    6.668535   4.104984   3.003634   2.590397   0.000000
    26  H    4.307250   2.487251   4.393337   3.989340   4.017007
                   26
    26  H    0.000000
 Stoichiometry    C11H12O3
 Framework group  C1[X(C11H12O3)]
 Deg. of freedom    72
 Full point group                 C1      NOp   1
 Largest Abelian subgroup         C1      NOp   1
 Largest concise Abelian subgroup C1      NOp   1
                         Standard orientation:                         
 ---------------------------------------------------------------------
 Center     Atomic      Atomic             Coordinates (Angstroms)
 Number     Number       Type             X           Y           Z
 ---------------------------------------------------------------------
      1          8           0        2.671521   -0.593764   -1.635861
      2          6           0        1.883664   -0.634132   -0.693210
      3          6           0        0.601028   -1.311045   -0.719477
      4          6           0       -0.272921   -1.178701    0.313668
      5          6           0       -1.669521   -1.726247    0.299145
      6          6           0       -2.644311   -0.762593   -0.395313
      7          6           0       -2.501081    0.668343    0.137011
      8          6           0       -1.189504    1.234245   -0.374132
      9          8           0       -0.990050    1.366416   -1.565240
     10          6           0       -0.162169    1.567024    0.633971
     11          6           0        1.111825    1.898759    0.197724
     12          6           0        2.171689    0.016536    0.586558
     13          8           0        1.446428   -0.228302    1.676318
     14          6           0        0.155355   -0.444726    1.462419
     15          1           0        0.365753   -1.900459   -1.591818
     16          1           0       -1.681155   -2.678565   -0.231990
     17          1           0       -2.003185   -1.895324    1.324254
     18          1           0       -3.663083   -1.118973   -0.240520
     19          1           0       -2.443444   -0.747011   -1.467896
     20          1           0       -2.551514    0.686897    1.224388
     21          1           0       -3.311566    1.275704   -0.270521
     22          1           0       -0.504092    1.873172    1.611546
     23          1           0        1.302827    1.924487   -0.862575
     24          1           0        1.779118    2.459401    0.829867
     25          1           0        3.196177    0.291154    0.801535
     26          1           0       -0.413361   -0.490061    2.381815
 ---------------------------------------------------------------------
 Rotational constants (GHZ):           1.1231754           0.6733189           0.6282216
 Leave Link  202 at Sun Feb  1 14:24:33 2026, MaxMem=  8589934592 cpu:               0.3 elap:               0.0
 (Enter /root/g16/l301.exe)
 Standard basis: STO-3G (5D, 7F)
 Ernie: Thresh=  0.10000D-02 Tol=  0.10000D-05 Strict=F.
 There are    82 symmetry adapted cartesian basis functions of A   symmetry.
 There are    82 symmetry adapted basis functions of A   symmetry.
    82 basis functions,   246 primitive gaussians,    82 cartesian basis functions
    51 alpha electrons       51 beta electrons
       nuclear repulsion energy       943.8137441042 Hartrees.
 IExCor=    0 DFT=F Ex=HF Corr=None ExCW=0 ScaHFX=  1.000000
 ScaDFX=  1.000000  1.000000  1.000000  1.000000 ScalE2=  1.000000  1.000000
 IRadAn=      5 IRanWt=     -1 IRanGd=            0 ICorTp=0 IEmpDi=  4
 NAtoms=   26 NActive=   26 NUniq=   26 SFac= 1.00D+00 NAtFMM=   60 NAOKFM=F Big=F
 Integral buffers will be    131072 words long.
 Raffenetti 1 integral format.
 Two-electron integral symmetry is turned on.
 Leave Link  301 at Sun Feb  1 14:24:33 2026, MaxMem=  8589934592 cpu:               0.2 elap:               0.0
 (Enter /root/g16/l302.exe)
 NPDir=0 NMtPBC=     1 NCelOv=     1 NCel=       1 NClECP=     1 NCelD=      1
         NCelK=      1 NCelE2=     1 NClLst=     1 CellRange=     0.0.
 One-electron integrals computed using PRISM.
 One-electron integral symmetry used in STVInt
 NBasis=    82 RedAO= T EigKep=  1.85D-01  NBF=    82
 NBsUse=    82 1.00D-06 EigRej= -1.00D+00 NBFU=    82
 Leave Link  302 at Sun Feb  1 14:24:33 2026, MaxMem=  8589934592 cpu:               0.6 elap:               0.1
 (Enter /root/g16/l303.exe)
 DipDrv:  MaxL=1.
 Leave Link  303 at Sun Feb  1 14:24:33 2026, MaxMem=  8589934592 cpu:               0.1 elap:               0.0
 (Enter /root/g16/l401.exe)
 ExpMin= 1.69D-01 ExpMax= 1.31D+02 ExpMxC= 1.31D+02 IAcc=3 IRadAn=         5 AccDes= 0.00D+00
 Harris functional with IExCor=  205 and IRadAn=       5 diagonalized for initial guess.
 HarFok:  IExCor=  205 AccDes= 0.00D+00 IRadAn=         5 IDoV= 1 UseB2=F ITyADJ=14
 ICtDFT=  3500011 ScaDFX=  1.000000  1.000000  1.000000  1.000000
 FoFCou: FMM=F IPFlag=           0 FMFlag=      100000 FMFlg1=           0
         NFxFlg=           0 DoJE=T BraDBF=F KetDBF=T FulRan=T
         wScrn=  0.000000 ICntrl=       500 IOpCl=  0 I1Cent=   200000004 NGrid=           0
         NMat0=    1 NMatS0=      1 NMatT0=    0 NMatD0=    1 NMtDS0=    0 NMtDT0=    0
 Petite list used in FoFCou.
 Harris En= -640.425325885429    
 JPrj=0 DoOrth=F DoCkMO=F.
 Leave Link  401 at Sun Feb  1 14:24:33 2026, MaxMem=  8589934592 cpu:               2.9 elap:               0.2
 (Enter /root/g16/l502.exe)
 Integral symmetry usage will be decided dynamically.
 Closed shell SCF:
 Using DIIS extrapolation, IDIIS=  1040.
 NGot=  8589934592 LenX=  8589918240 LenY=  8589911075
 Requested convergence on RMS density matrix=1.00D-08 within 128 cycles.
 Requested convergence on MAX density matrix=1.00D-06.
 Requested convergence on             energy=1.00D-06.
 No special actions if energy rises.
 Fock matrices will be formed incrementally for  20 cycles.
 Integral accuracy reduced to 1.0D-05 until final iterations.

 Cycle   1  Pass 0  IDiag  1:
 FoFJK:  IHMeth= 1 ICntrl=       0 DoSepK=F KAlg= 0 I1Cent=           0 FoldK=F
 IRaf= 910000000 NMat=       1 IRICut=       1 DoRegI=T DoRafI=F ISym2E= 0 IDoP0=0 IntGTp=1.
 FoFCou: FMM=F IPFlag=           0 FMFlag=      100000 FMFlg1=           0
         NFxFlg=           0 DoJE=F BraDBF=F KetDBF=F FulRan=T
         wScrn=  0.000000 ICntrl=         0 IOpCl=  0 I1Cent=           0 NGrid=           0
         NMat0=    1 NMatS0=      1 NMatT0=    0 NMatD0=    1 NMtDS0=    0 NMtDT0=    0
 Symmetry not used in FoFCou.
 E= -639.547479906629    
 DIIS: error= 4.04D-02 at cycle   1 NSaved=   1.
 NSaved= 1 IEnMin= 1 EnMin= -639.547479906629     IErMin= 1 ErrMin= 4.04D-02
 ErrMax= 4.04D-02  0.00D+00 EMaxC= 1.00D-01 BMatC= 2.51D-01 BMatP= 2.51D-01
 IDIUse=3 WtCom= 5.96D-01 WtEn= 4.04D-01
 Coeff-Com:  0.100D+01
 Coeff-En:   0.100D+01
 Coeff:      0.100D+01
 Gap=     0.410 Goal=   None    Shift=    0.000
 GapD=    0.410 DampG=2.000 DampE=0.500 DampFc=1.0000 IDamp=-1.
 RMSDP=8.81D-03 MaxDP=1.32D-01              OVMax= 0.00D+00

 Cycle   2  Pass 0  IDiag  1:
 RMSU=  8.80D-03    CP:  9.96D-01
 E= -639.757462961818     Delta-E=       -0.209983055189 Rises=F Damp=F
 DIIS: error= 1.31D-02 at cycle   2 NSaved=   2.
 NSaved= 2 IEnMin= 2 EnMin= -639.757462961818     IErMin= 2 ErrMin= 1.31D-02
 ErrMax= 1.31D-02  0.00D+00 EMaxC= 1.00D-01 BMatC= 2.17D-02 BMatP= 2.51D-01
 IDIUse=3 WtCom= 8.69D-01 WtEn= 1.31D-01
 Coeff-Com:  0.150D+00 0.850D+00
 Coeff-En:   0.000D+00 0.100D+01
 Coeff:      0.130D+00 0.870D+00
 Gap=     0.412 Goal=   None    Shift=    0.000
 RMSDP=3.08D-03 MaxDP=4.42D-02 DE=-2.10D-01 OVMax= 0.00D+00

 Cycle   3  Pass 0  IDiag  1:
 RMSU=  2.26D-03    CP:  9.97D-01  7.63D-01
 E= -639.783313619625     Delta-E=       -0.025850657807 Rises=F Damp=F
 DIIS: error= 4.32D-03 at cycle   3 NSaved=   3.
 NSaved= 3 IEnMin= 3 EnMin= -639.783313619625     IErMin= 3 ErrMin= 4.32D-03
 ErrMax= 4.32D-03  0.00D+00 EMaxC= 1.00D-01 BMatC= 1.92D-03 BMatP= 2.17D-02
 IDIUse=3 WtCom= 9.57D-01 WtEn= 4.32D-02
 Coeff-Com: -0.188D-01 0.177D+00 0.842D+00
 Coeff-En:   0.000D+00 0.000D+00 0.100D+01
 Coeff:     -0.180D-01 0.169D+00 0.849D+00
 Gap=     0.386 Goal=   None    Shift=    0.000
 RMSDP=9.81D-04 MaxDP=1.97D-02 DE=-2.59D-02 OVMax= 0.00D+00

 Cycle   4  Pass 0  IDiag  1:
 RMSU=  6.55D-04    CP:  9.97D-01  8.43D-01  9.12D-01
 E= -639.786642354537     Delta-E=       -0.003328734912 Rises=F Damp=F
 DIIS: error= 1.15D-03 at cycle   4 NSaved=   4.
 NSaved= 4 IEnMin= 4 EnMin= -639.786642354537     IErMin= 4 ErrMin= 1.15D-03
 ErrMax= 1.15D-03  0.00D+00 EMaxC= 1.00D-01 BMatC= 2.19D-04 BMatP= 1.92D-03
 IDIUse=3 WtCom= 9.89D-01 WtEn= 1.15D-02
 Coeff-Com: -0.895D-02-0.150D-01 0.190D+00 0.834D+00
 Coeff-En:   0.000D+00 0.000D+00 0.000D+00 0.100D+01
 Coeff:     -0.884D-02-0.148D-01 0.188D+00 0.836D+00
 Gap=     0.387 Goal=   None    Shift=    0.000
 RMSDP=2.94D-04 MaxDP=3.60D-03 DE=-3.33D-03 OVMax= 0.00D+00

 Cycle   5  Pass 0  IDiag  1:
 RMSU=  2.15D-04    CP:  9.96D-01  8.46D-01  9.99D-01  1.04D+00
 E= -639.786999963455     Delta-E=       -0.000357608918 Rises=F Damp=F
 DIIS: error= 5.02D-04 at cycle   5 NSaved=   5.
 NSaved= 5 IEnMin= 5 EnMin= -639.786999963455     IErMin= 5 ErrMin= 5.02D-04
 ErrMax= 5.02D-04  0.00D+00 EMaxC= 1.00D-01 BMatC= 2.66D-05 BMatP= 2.19D-04
 IDIUse=3 WtCom= 9.95D-01 WtEn= 5.02D-03
 Coeff-Com:  0.259D-02-0.355D-01-0.967D-01-0.165D-01 0.115D+01
 Coeff-En:   0.000D+00 0.000D+00 0.000D+00 0.000D+00 0.100D+01
 Coeff:      0.258D-02-0.353D-01-0.962D-01-0.165D-01 0.115D+01
 Gap=     0.387 Goal=   None    Shift=    0.000
 RMSDP=1.97D-04 MaxDP=3.38D-03 DE=-3.58D-04 OVMax= 0.00D+00

 Cycle   6  Pass 0  IDiag  1:
 RMSU=  8.62D-05    CP:  9.96D-01  8.49D-01  1.04D+00  1.24D+00  1.27D+00
 E= -639.787097401262     Delta-E=       -0.000097437808 Rises=F Damp=F
 DIIS: error= 3.18D-04 at cycle   6 NSaved=   6.
 NSaved= 6 IEnMin= 6 EnMin= -639.787097401262     IErMin= 6 ErrMin= 3.18D-04
 ErrMax= 3.18D-04  0.00D+00 EMaxC= 1.00D-01 BMatC= 5.89D-06 BMatP= 2.66D-05
 IDIUse=3 WtCom= 9.97D-01 WtEn= 3.18D-03
 Coeff-Com:  0.130D-02-0.169D-02-0.166D-01-0.152D+00 0.153D+00 0.102D+01
 Coeff-En:   0.000D+00 0.000D+00 0.000D+00 0.000D+00 0.000D+00 0.100D+01
 Coeff:      0.130D-02-0.169D-02-0.166D-01-0.152D+00 0.152D+00 0.102D+01
 Gap=     0.387 Goal=   None    Shift=    0.000
 RMSDP=7.69D-05 MaxDP=1.15D-03 DE=-9.74D-05 OVMax= 0.00D+00

 Cycle   7  Pass 0  IDiag  1:
 RMSU=  3.17D-05    CP:  9.96D-01  8.50D-01  1.06D+00  1.29D+00  1.50D+00
                    CP:  1.26D+00
 E= -639.787112786727     Delta-E=       -0.000015385465 Rises=F Damp=F
 DIIS: error= 9.36D-05 at cycle   7 NSaved=   7.
 NSaved= 7 IEnMin= 7 EnMin= -639.787112786727     IErMin= 7 ErrMin= 9.36D-05
 ErrMax= 9.36D-05  0.00D+00 EMaxC= 1.00D-01 BMatC= 8.67D-07 BMatP= 5.89D-06
 IDIUse=1 WtCom= 1.00D+00 WtEn= 0.00D+00
 Coeff-Com: -0.464D-03 0.630D-02 0.244D-01-0.170D-01-0.171D+00-0.424D-01
 Coeff-Com:  0.120D+01
 Coeff:     -0.464D-03 0.630D-02 0.244D-01-0.170D-01-0.171D+00-0.424D-01
 Coeff:      0.120D+01
 Gap=     0.388 Goal=   None    Shift=    0.000
 RMSDP=3.79D-05 MaxDP=5.78D-04 DE=-1.54D-05 OVMax= 0.00D+00

 Cycle   8  Pass 0  IDiag  1:
 RMSU=  1.29D-05    CP:  9.96D-01  8.50D-01  1.06D+00  1.31D+00  1.59D+00
                    CP:  1.54D+00  1.37D+00
 E= -639.787115456625     Delta-E=       -0.000002669898 Rises=F Damp=F
 DIIS: error= 3.13D-05 at cycle   8 NSaved=   8.
 NSaved= 8 IEnMin= 8 EnMin= -639.787115456625     IErMin= 8 ErrMin= 3.13D-05
 ErrMax= 3.13D-05  0.00D+00 EMaxC= 1.00D-01 BMatC= 1.05D-07 BMatP= 8.67D-07
 IDIUse=1 WtCom= 1.00D+00 WtEn= 0.00D+00
 Coeff-Com: -0.309D-03 0.190D-02 0.991D-02 0.135D-01-0.650D-01-0.158D+00
 Coeff-Com:  0.296D+00 0.902D+00
 Coeff:     -0.309D-03 0.190D-02 0.991D-02 0.135D-01-0.650D-01-0.158D+00
 Coeff:      0.296D+00 0.902D+00
 Gap=     0.388 Goal=   None    Shift=    0.000
 RMSDP=1.22D-05 MaxDP=2.51D-04 DE=-2.67D-06 OVMax= 0.00D+00

 Cycle   9  Pass 0  IDiag  1:
 RMSU=  4.18D-06    CP:  9.96D-01  8.50D-01  1.06D+00  1.31D+00  1.61D+00
                    CP:  1.62D+00  1.60D+00  1.02D+00
 E= -639.787115730555     Delta-E=       -0.000000273930 Rises=F Damp=F
 DIIS: error= 8.00D-06 at cycle   9 NSaved=   9.
 NSaved= 9 IEnMin= 9 EnMin= -639.787115730555     IErMin= 9 ErrMin= 8.00D-06
 ErrMax= 8.00D-06  0.00D+00 EMaxC= 1.00D-01 BMatC= 8.66D-09 BMatP= 1.05D-07
 IDIUse=1 WtCom= 1.00D+00 WtEn= 0.00D+00
 Coeff-Com:  0.113D-03-0.102D-02-0.424D-02-0.222D-02 0.297D-01 0.500D-01
 Coeff-Com: -0.215D+00-0.135D+00 0.128D+01
 Coeff:      0.113D-03-0.102D-02-0.424D-02-0.222D-02 0.297D-01 0.500D-01
 Coeff:     -0.215D+00-0.135D+00 0.128D+01
 Gap=     0.388 Goal=   None    Shift=    0.000
 RMSDP=4.10D-06 MaxDP=6.42D-05 DE=-2.74D-07 OVMax= 0.00D+00

 Initial convergence to 1.0D-05 achieved.  Increase integral accuracy.
 Cycle  10  Pass 1  IDiag  1:
 E= -639.787125994420     Delta-E=       -0.000010263865 Rises=F Damp=F
 DIIS: error= 3.75D-06 at cycle   1 NSaved=   1.
 NSaved= 1 IEnMin= 1 EnMin= -639.787125994420     IErMin= 1 ErrMin= 3.75D-06
 ErrMax= 3.75D-06  0.00D+00 EMaxC= 1.00D-01 BMatC= 1.45D-09 BMatP= 1.45D-09
 IDIUse=1 WtCom= 1.00D+00 WtEn= 0.00D+00
 Coeff-Com:  0.100D+01
 Coeff:      0.100D+01
 Gap=     0.388 Goal=   None    Shift=    0.000
 RMSDP=4.10D-06 MaxDP=6.42D-05 DE=-1.03D-05 OVMax= 0.00D+00

 Cycle  11  Pass 1  IDiag  1:
 RMSU=  9.23D-07    CP:  1.00D+00
 E= -639.787125997637     Delta-E=       -0.000000003217 Rises=F Damp=F
 DIIS: error= 1.79D-06 at cycle   2 NSaved=   2.
 NSaved= 2 IEnMin= 2 EnMin= -639.787125997637     IErMin= 2 ErrMin= 1.79D-06
 ErrMax= 1.79D-06  0.00D+00 EMaxC= 1.00D-01 BMatC= 2.56D-10 BMatP= 1.45D-09
 IDIUse=1 WtCom= 1.00D+00 WtEn= 0.00D+00
 Coeff-Com: -0.129D-01 0.101D+01
 Coeff:     -0.129D-01 0.101D+01
 Gap=     0.388 Goal=   None    Shift=    0.000
 RMSDP=4.95D-07 MaxDP=1.03D-05 DE=-3.22D-09 OVMax= 0.00D+00

 Cycle  12  Pass 1  IDiag  1:
 RMSU=  3.86D-07    CP:  1.00D+00  1.34D+00
 E= -639.787125998634     Delta-E=       -0.000000000997 Rises=F Damp=F
 DIIS: error= 1.25D-06 at cycle   3 NSaved=   3.
 NSaved= 3 IEnMin= 3 EnMin= -639.787125998634     IErMin= 3 ErrMin= 1.25D-06
 ErrMax= 1.25D-06  0.00D+00 EMaxC= 1.00D-01 BMatC= 1.16D-10 BMatP= 2.56D-10
 IDIUse=1 WtCom= 1.00D+00 WtEn= 0.00D+00
 Coeff-Com: -0.223D+00 0.596D-01 0.116D+01
 Coeff:     -0.223D+00 0.596D-01 0.116D+01
 Gap=     0.388 Goal=   None    Shift=    0.000
 RMSDP=4.45D-07 MaxDP=8.70D-06 DE=-9.97D-10 OVMax= 0.00D+00

 Cycle  13  Pass 1  IDiag  1:
 RMSU=  1.46D-07    CP:  1.00D+00  1.76D+00  1.42D+00
 E= -639.787125999149     Delta-E=       -0.000000000515 Rises=F Damp=F
 DIIS: error= 4.63D-07 at cycle   4 NSaved=   4.
 NSaved= 4 IEnMin= 4 EnMin= -639.787125999149     IErMin= 4 ErrMin= 4.63D-07
 ErrMax= 4.63D-07  0.00D+00 EMaxC= 1.00D-01 BMatC= 1.75D-11 BMatP= 1.16D-10
 IDIUse=1 WtCom= 1.00D+00 WtEn= 0.00D+00
 Coeff-Com:  0.297D-01-0.242D+00-0.235D+00 0.145D+01
 Coeff:      0.297D-01-0.242D+00-0.235D+00 0.145D+01
 Gap=     0.388 Goal=   None    Shift=    0.000
 RMSDP=3.04D-07 MaxDP=6.85D-06 DE=-5.15D-10 OVMax= 0.00D+00

 Cycle  14  Pass 1  IDiag  1:
 RMSU=  5.52D-08    CP:  1.00D+00  2.00D+00  1.87D+00  1.69D+00
 E= -639.787125999282     Delta-E=       -0.000000000133 Rises=F Damp=F
 DIIS: error= 1.41D-07 at cycle   5 NSaved=   5.
 NSaved= 5 IEnMin= 5 EnMin= -639.787125999282     IErMin= 5 ErrMin= 1.41D-07
 ErrMax= 1.41D-07  0.00D+00 EMaxC= 1.00D-01 BMatC= 1.98D-12 BMatP= 1.75D-11
 IDIUse=1 WtCom= 1.00D+00 WtEn= 0.00D+00
 Coeff-Com:  0.147D-01-0.289D-01-0.799D-01 0.875D-01 0.101D+01
 Coeff:      0.147D-01-0.289D-01-0.799D-01 0.875D-01 0.101D+01
 Gap=     0.388 Goal=   None    Shift=    0.000
 RMSDP=6.27D-08 MaxDP=1.62D-06 DE=-1.33D-10 OVMax= 0.00D+00

 Cycle  15  Pass 1  IDiag  1:
 RMSU=  2.90D-08    CP:  1.00D+00  2.03D+00  1.94D+00  1.89D+00  1.38D+00
 E= -639.787125999290     Delta-E=       -0.000000000008 Rises=F Damp=F
 DIIS: error= 9.71D-08 at cycle   6 NSaved=   6.
 NSaved= 6 IEnMin= 6 EnMin= -639.787125999290     IErMin= 6 ErrMin= 9.71D-08
 ErrMax= 9.71D-08  0.00D+00 EMaxC= 1.00D-01 BMatC= 8.54D-13 BMatP= 1.98D-12
 IDIUse=1 WtCom= 1.00D+00 WtEn= 0.00D+00
 Coeff-Com: -0.135D-01 0.101D+00 0.129D+00-0.653D+00 0.936D-01 0.134D+01
 Coeff:     -0.135D-01 0.101D+00 0.129D+00-0.653D+00 0.936D-01 0.134D+01
 Gap=     0.388 Goal=   None    Shift=    0.000
 RMSDP=5.27D-08 MaxDP=1.11D-06 DE=-8.41D-12 OVMax= 0.00D+00

 Cycle  16  Pass 1  IDiag  1:
 RMSU=  1.15D-08    CP:  1.00D+00  2.04D+00  1.98D+00  2.05D+00  2.08D+00
                    CP:  1.55D+00
 E= -639.787125999296     Delta-E=       -0.000000000005 Rises=F Damp=F
 DIIS: error= 2.83D-08 at cycle   7 NSaved=   7.
 NSaved= 7 IEnMin= 7 EnMin= -639.787125999296     IErMin= 7 ErrMin= 2.83D-08
 ErrMax= 2.83D-08  0.00D+00 EMaxC= 1.00D-01 BMatC= 8.68D-14 BMatP= 8.54D-13
 IDIUse=1 WtCom= 1.00D+00 WtEn= 0.00D+00
 Coeff-Com: -0.322D-02 0.777D-02 0.248D-01-0.599D-01-0.137D+00 0.570D-01
 Coeff-Com:  0.111D+01
 Coeff:     -0.322D-02 0.777D-02 0.248D-01-0.599D-01-0.137D+00 0.570D-01
 Coeff:      0.111D+01
 Gap=     0.388 Goal=   None    Shift=    0.000
 RMSDP=1.78D-08 MaxDP=4.05D-07 DE=-5.23D-12 OVMax= 0.00D+00

 Cycle  17  Pass 1  IDiag  1:
 RMSU=  5.24D-09    CP:  1.00D+00  2.05D+00  1.99D+00  2.09D+00  2.28D+00
                    CP:  1.85D+00  1.33D+00
 E= -639.787125999294     Delta-E=        0.000000000001 Rises=F Damp=F
 DIIS: error= 1.40D-08 at cycle   8 NSaved=   8.
 NSaved= 8 IEnMin= 7 EnMin= -639.787125999296     IErMin= 8 ErrMin= 1.40D-08
 ErrMax= 1.40D-08  0.00D+00 EMaxC= 1.00D-01 BMatC= 1.53D-14 BMatP= 8.68D-14
 IDIUse=1 WtCom= 1.00D+00 WtEn= 0.00D+00
 Coeff-Com:  0.258D-02-0.194D-01-0.219D-01 0.121D+00-0.142D-01-0.240D+00
 Coeff-Com: -0.739D-01 0.125D+01
 Coeff:      0.258D-02-0.194D-01-0.219D-01 0.121D+00-0.142D-01-0.240D+00
 Coeff:     -0.739D-01 0.125D+01
 Gap=     0.388 Goal=   None    Shift=    0.000
 RMSDP=7.19D-09 MaxDP=1.26D-07 DE= 1.14D-12 OVMax= 0.00D+00

 SCF Done:  E(RHF) =  -639.787125999     A.U. after   17 cycles
            NFock= 17  Conv=0.72D-08     -V/T= 2.0085
 KE= 6.344161277389D+02 PE=-3.386864561307D+03 EE= 1.168847563465D+03
 Leave Link  502 at Sun Feb  1 14:24:34 2026, MaxMem=  8589934592 cpu:               9.3 elap:               0.6
 (Enter /root/g16/l801.exe)
 Range of M.O.s used for correlation:     1    82
 NBasis=    82 NAE=    51 NBE=    51 NFC=     0 NFV=     0
 NROrb=     82 NOA=    51 NOB=    51 NVA=    31 NVB=    31
 Leave Link  801 at Sun Feb  1 14:24:34 2026, MaxMem=  8589934592 cpu:               0.2 elap:               0.0
 (Enter /root/g16/l1101.exe)
 Using compressed storage, NAtomX=    26.
 Will process     27 centers per pass.
 Leave Link 1101 at Sun Feb  1 14:24:34 2026, MaxMem=  8589934592 cpu:               0.7 elap:               0.1
 (Enter /root/g16/l1102.exe)
 Symmetrizing basis deriv contribution to polar:
 IMax=3 JMax=2 DiffMx= 0.00D+00
 Leave Link 1102 at Sun Feb  1 14:24:34 2026, MaxMem=  8589934592 cpu:               0.1 elap:               0.0
 (Enter /root/g16/l1110.exe)
 Forming Gx(P) for the SCF density, NAtomX=    26.
 Integral derivatives from FoFJK, PRISM(SPDF).
 Do as many integral derivatives as possible in FoFJK.
 G2DrvN: MDV=    8589932584.
 G2DrvN: will do    27 centers at a time, making    1 passes.
 Calling FoFCou, ICntrl=  3107 FMM=F I1Cent=   0 AccDes= 0.00D+00.
 FoFJK:  IHMeth= 1 ICntrl=    3107 DoSepK=F KAlg= 0 I1Cent=           0 FoldK=F
 IRaf=         0 NMat=       1 IRICut=       1 DoRegI=T DoRafI=F ISym2E= 0 IDoP0=0 IntGTp=1.
 FoFCou: FMM=F IPFlag=           0 FMFlag=      100000 FMFlg1=           0
         NFxFlg=           0 DoJE=F BraDBF=F KetDBF=F FulRan=T
         wScrn=  0.000000 ICntrl=      3107 IOpCl=  0 I1Cent=           0 NGrid=           0
         NMat0=    1 NMatS0=      1 NMatT0=    0 NMatD0=    1 NMtDS0=    0 NMtDT0=    0
 Symmetry not used in FoFCou.
 End of G2Drv F.D. properties file   721 does not exist.
 End of G2Drv F.D. properties file   722 does not exist.
 End of G2Drv F.D. properties file   788 does not exist.
 Leave Link 1110 at Sun Feb  1 14:24:34 2026, MaxMem=  8589934592 cpu:               2.3 elap:               0.2
 (Enter /root/g16/l1002.exe)
 Minotr:  Closed shell wavefunction.
          IDoAtm=11111111111111111111111111
          Direct CPHF calculation.
          Differentiating once with respect to nuclear coordinates.
          Requested convergence is 1.0D-08 RMS, and 1.0D-07 maximum.
          Secondary convergence is 1.0D-12 RMS, and 1.0D-12 maximum.
          NewPWx=T KeepS1=F KeepF1=F KeepIn=T MapXYZ=F SortEE=F KeepMc=T.
 Keep R1 ints in memory in canonical form, NReq=9165855.
 FoFCou: FMM=F IPFlag=           0 FMFlag=           0 FMFlg1=           0
         NFxFlg=           0 DoJE=F BraDBF=F KetDBF=F FulRan=T
         wScrn=  0.000000 ICntrl=       600 IOpCl=  0 I1Cent=           0 NGrid=           0
         NMat0=    1 NMatS0=   3403 NMatT0=    0 NMatD0=    1 NMtDS0=    0 NMtDT0=    0
 Symmetry not used in FoFCou.
 Two-electron integral symmetry not used.
          MDV=    8589934592 using IRadAn=       1.
          Solving linear equations simultaneously, MaxMat=       0.
          There are    81 degrees of freedom in the 1st order CPHF.  IDoFFX=6 NUNeed=     0.
     75 vectors produced by pass  0 Test12= 1.95D-15 1.23D-09 XBig12= 5.58D-02 8.77D-02.
 AX will form    75 AO Fock derivatives at one time.
     75 vectors produced by pass  1 Test12= 1.95D-15 1.23D-09 XBig12= 5.91D-04 7.41D-03.
     75 vectors produced by pass  2 Test12= 1.95D-15 1.23D-09 XBig12= 8.49D-06 5.23D-04.
     75 vectors produced by pass  3 Test12= 1.95D-15 1.23D-09 XBig12= 4.74D-08 4.28D-05.
     75 vectors produced by pass  4 Test12= 1.95D-15 1.23D-09 XBig12= 2.87D-10 3.19D-06.
     75 vectors produced by pass  5 Test12= 1.95D-15 1.23D-09 XBig12= 8.79D-13 2.01D-07.
     29 vectors produced by pass  6 Test12= 1.95D-15 1.23D-09 XBig12= 2.36D-15 8.26D-09.
 InvSVY:  IOpt=1 It=  1 EMax= 2.50D-16
 Solved reduced A of dimension   479 with    81 vectors.
 End of Minotr F.D. properties file   721 does not exist.
 End of Minotr F.D. properties file   722 does not exist.
 End of Minotr F.D. properties file   788 does not exist.
 Leave Link 1002 at Sun Feb  1 14:24:34 2026, MaxMem=  8589934592 cpu:               4.3 elap:               0.3
 (Enter /root/g16/l601.exe)
 Copying SCF densities to generalized density rwf, IOpCl= 0 IROHF=0.

 **********************************************************************

            Population analysis using the SCF density.

 **********************************************************************

 Orbital symmetries:
       Occupied  (A) (A) (A) (A) (A) (A) (A) (A) (A) (A) (A) (A)
                 (A) (A) (A) (A) (A) (A) (A) (A) (A) (A) (A) (A)
                 (A) (A) (A) (A) (A) (A) (A) (A) (A) (A) (A) (A)
                 (A) (A) (A) (A) (A) (A) (A) (A) (A) (A) (A) (A)
                 (A) (A) (A)
       Virtual   (A) (A) (A) (A) (A) (A) (A) (A) (A) (A) (A) (A)
                 (A) (A) (A) (A) (A) (A) (A) (A) (A) (A) (A) (A)
                 (A) (A) (A) (A) (A) (A) (A)
 The electronic state is 1-A.
 Alpha  occ. eigenvalues --  -20.42129 -20.26040 -20.20699 -11.12354 -11.11638
 Alpha  occ. eigenvalues --  -11.11342 -11.10862 -11.07363 -11.07338 -11.06290
 Alpha  occ. eigenvalues --  -11.05581 -11.03369 -11.03182 -11.03113  -1.44131
 Alpha  occ. eigenvalues --   -1.32323  -1.28449  -1.09840  -1.02603  -1.00619
 Alpha  occ. eigenvalues --   -0.98164  -0.93289  -0.84475  -0.83293  -0.78661
 Alpha  occ. eigenvalues --   -0.75517  -0.69752  -0.67755  -0.65858  -0.63886
 Alpha  occ. eigenvalues --   -0.61788  -0.60281  -0.58530  -0.56642  -0.56305
 Alpha  occ. eigenvalues --   -0.53960  -0.53229  -0.52286  -0.49591  -0.48969
 Alpha  occ. eigenvalues --   -0.47498  -0.46105  -0.46060  -0.45485  -0.43789
 Alpha  occ. eigenvalues --   -0.41931  -0.33762  -0.31807  -0.31026  -0.28072
 Alpha  occ. eigenvalues --   -0.20634
 Alpha virt. eigenvalues --    0.18134   0.23191   0.26999   0.41121   0.44114
 Alpha virt. eigenvalues --    0.55909   0.57915   0.59002   0.61386   0.62773
 Alpha virt. eigenvalues --    0.64003   0.65886   0.67040   0.68036   0.69884
 Alpha virt. eigenvalues --    0.70101   0.70884   0.72049   0.72886   0.73698
 Alpha virt. eigenvalues --    0.76655   0.77336   0.79333   0.82321   0.83855
 Alpha virt. eigenvalues --    0.86941   0.91724   0.94513   1.00555   1.05809
 Alpha virt. eigenvalues --    1.10846
          Condensed to atoms (all electrons):
               1          2          3          4          5          6
     1  O    7.909336   0.422700  -0.026974   0.000299  -0.000001   0.000000
     2  C    0.422700   4.725551   0.404485  -0.026570   0.000759  -0.000009
     3  C   -0.026974   0.404485   4.875174   0.557933  -0.024771  -0.001191
     4  C    0.000299  -0.026570   0.557933   4.811338   0.380084  -0.023869
     5  C   -0.000001   0.000759  -0.024771   0.380084   4.729598   0.356951
     6  C    0.000000  -0.000009  -0.001191  -0.023869   0.356951   4.743535
     7  C    0.000000  -0.000001  -0.000016  -0.003439  -0.023866   0.358702
     8  C    0.000000  -0.000014  -0.000806  -0.003481  -0.001768  -0.024771
     9  O   -0.000000   0.000005   0.000014  -0.000501   0.000020  -0.001690
    10  C    0.000017  -0.001328  -0.003178  -0.009199   0.000225   0.000596
    11  C   -0.000494  -0.006516  -0.000029  -0.001407   0.000006  -0.000009
    12  C   -0.028758   0.386767  -0.041421  -0.007476  -0.000015   0.000002
    13  O    0.000063  -0.014800  -0.002686  -0.018960   0.000262  -0.000001
    14  C    0.000018  -0.009190  -0.035152   0.438859  -0.027084  -0.000130
    15  H   -0.000388  -0.024017   0.392559  -0.024748  -0.003400   0.000044
    16  H   -0.000000   0.000015  -0.003664  -0.022621   0.383947  -0.020837
    17  H    0.000000  -0.000021   0.001241  -0.024455   0.384711  -0.022195
    18  H   -0.000000   0.000000   0.000006   0.001371  -0.022192   0.384141
    19  H    0.000000  -0.000004   0.000196  -0.001321  -0.022030   0.385082
    20  H   -0.000000   0.000000   0.000011  -0.000123  -0.002759  -0.021259
    21  H    0.000000  -0.000000  -0.000003   0.000041   0.001290  -0.020270
    22  H   -0.000000   0.000008   0.000038  -0.000120   0.000010   0.000041
    23  H    0.000174  -0.001815  -0.000315   0.000008   0.000000  -0.000001
    24  H    0.000018   0.000044  -0.000009   0.000009  -0.000000   0.000000
    25  H   -0.000070  -0.024463   0.001243  -0.000010   0.000001  -0.000000
    26  H    0.000000   0.000002   0.001249  -0.026042  -0.002950   0.000089
               7          8          9         10         11         12
     1  O    0.000000   0.000000  -0.000000   0.000017  -0.000494  -0.028758
     2  C   -0.000001  -0.000014   0.000005  -0.001328  -0.006516   0.386767
     3  C   -0.000016  -0.000806   0.000014  -0.003178  -0.000029  -0.041421
     4  C   -0.003439  -0.003481  -0.000501  -0.009199  -0.001407  -0.007476
     5  C   -0.023866  -0.001768   0.000020   0.000225   0.000006  -0.000015
     6  C    0.358702  -0.024771  -0.001690   0.000596  -0.000009   0.000002
     7  C    4.787249   0.358307  -0.026853  -0.038714   0.000790  -0.000003
     8  C    0.358307   4.755950   0.440590   0.386024  -0.027747   0.000251
     9  O   -0.026853   0.440590   7.857098  -0.028261  -0.002665   0.000005
    10  C   -0.038714   0.386024  -0.028261   4.880766   0.508660  -0.010539
    11  C    0.000790  -0.027747  -0.002665   0.508660   4.825455   0.105088
    12  C   -0.000003   0.000251   0.000005  -0.010539   0.105088   4.900014
    13  O    0.000004   0.000018   0.000000  -0.014122  -0.014250   0.328485
    14  C   -0.000806  -0.006380  -0.000118   0.092945  -0.010702  -0.069778
    15  H    0.000007  -0.000025   0.000006  -0.000020  -0.000013   0.001314
    16  H    0.001282   0.000009  -0.000003  -0.000004  -0.000001  -0.000001
    17  H   -0.001369   0.000004  -0.000001   0.000018  -0.000000   0.000001
    18  H   -0.021260   0.001403  -0.000005  -0.000023   0.000000  -0.000000
    19  H   -0.023675  -0.004331   0.000698   0.000077  -0.000001  -0.000000
    20  H    0.384745  -0.020753   0.000617  -0.003298   0.000050  -0.000001
    21  H    0.381049  -0.021928  -0.001136   0.001059  -0.000022  -0.000000
    22  H   -0.001696  -0.022872   0.000517   0.391066  -0.023773   0.000667
    23  H    0.000059  -0.005278   0.001436  -0.024500   0.391800  -0.006657
    24  H   -0.000017   0.001305  -0.000002  -0.022913   0.392004  -0.007140
    25  H    0.000000  -0.000002  -0.000000   0.000076  -0.003708   0.385213
    26  H   -0.000112   0.000029  -0.000000  -0.003851   0.000059   0.002871
              13         14         15         16         17         18
     1  O    0.000063   0.000018  -0.000388  -0.000000   0.000000  -0.000000
     2  C   -0.014800  -0.009190  -0.024017   0.000015  -0.000021   0.000000
     3  C   -0.002686  -0.035152   0.392559  -0.003664   0.001241   0.000006
     4  C   -0.018960   0.438859  -0.024748  -0.022621  -0.024455   0.001371
     5  C    0.000262  -0.027084  -0.003400   0.383947   0.384711  -0.022192
     6  C   -0.000001  -0.000130   0.000044  -0.020837  -0.022195   0.384141
     7  C    0.000004  -0.000806   0.000007   0.001282  -0.001369  -0.021260
     8  C    0.000018  -0.006380  -0.000025   0.000009   0.000004   0.001403
     9  O    0.000000  -0.000118   0.000006  -0.000003  -0.000001  -0.000005
    10  C   -0.014122   0.092945  -0.000020  -0.000004   0.000018  -0.000023
    11  C   -0.014250  -0.010702  -0.000013  -0.000001  -0.000000   0.000000
    12  C    0.328485  -0.069778   0.001314  -0.000001   0.000001  -0.000000
    13  O    7.638641   0.333880  -0.000005  -0.000006   0.000019   0.000000
    14  C    0.333880   4.834626   0.001495   0.001222  -0.004860  -0.000011
    15  H   -0.000005   0.001495   0.579622   0.000425   0.000032  -0.000007
    16  H   -0.000006   0.001222   0.000425   0.614066  -0.021580  -0.001211
    17  H    0.000019  -0.004860   0.000032  -0.021580   0.628281  -0.003431
    18  H    0.000000  -0.000011  -0.000007  -0.001211  -0.003431   0.626826
    19  H    0.000000   0.000003   0.000031  -0.003388   0.001858  -0.021977
    20  H    0.000002  -0.000185  -0.000000   0.000019   0.000358  -0.001152
    21  H   -0.000000   0.000021   0.000000  -0.000033  -0.000002  -0.003248
    22  H   -0.000515  -0.008484  -0.000000  -0.000000  -0.000003  -0.000001
    23  H    0.000070   0.000580  -0.000006  -0.000000   0.000000   0.000000
    24  H   -0.000457   0.000598  -0.000000   0.000000   0.000000  -0.000000
    25  H   -0.021119   0.002796  -0.000032  -0.000000   0.000000   0.000000
    26  H   -0.022625   0.389976  -0.000033   0.000017   0.000306  -0.000006
              19         20         21         22         23         24
     1  O    0.000000  -0.000000   0.000000  -0.000000   0.000174   0.000018
     2  C   -0.000004   0.000000  -0.000000   0.000008  -0.001815   0.000044
     3  C    0.000196   0.000011  -0.000003   0.000038  -0.000315  -0.000009
     4  C   -0.001321  -0.000123   0.000041  -0.000120   0.000008   0.000009
     5  C   -0.022030  -0.002759   0.001290   0.000010   0.000000  -0.000000
     6  C    0.385082  -0.021259  -0.020270   0.000041  -0.000001   0.000000
     7  C   -0.023675   0.384745   0.381049  -0.001696   0.000059  -0.000017
     8  C   -0.004331  -0.020753  -0.021928  -0.022872  -0.005278   0.001305
     9  O    0.000698   0.000617  -0.001136   0.000517   0.001436  -0.000002
    10  C    0.000077  -0.003298   0.001059   0.391066  -0.024500  -0.022913
    11  C   -0.000001   0.000050  -0.000022  -0.023773   0.391800   0.392004
    12  C   -0.000000  -0.000001  -0.000000   0.000667  -0.006657  -0.007140
    13  O    0.000000   0.000002  -0.000000  -0.000515   0.000070  -0.000457
    14  C    0.000003  -0.000185   0.000021  -0.008484   0.000580   0.000598
    15  H    0.000031  -0.000000   0.000000  -0.000000  -0.000006  -0.000000
    16  H   -0.003388   0.000019  -0.000033  -0.000000  -0.000000   0.000000
    17  H    0.001858   0.000358  -0.000002  -0.000003   0.000000   0.000000
    18  H   -0.021977  -0.001152  -0.003248  -0.000001   0.000000  -0.000000
    19  H    0.617921   0.001881  -0.001416  -0.000002  -0.000001   0.000000
    20  H    0.001881   0.627343  -0.021526  -0.000309  -0.000000  -0.000002
    21  H   -0.001416  -0.021526   0.615852   0.000025  -0.000001   0.000001
    22  H   -0.000002  -0.000309   0.000025   0.605231   0.001677  -0.004189
    23  H   -0.000001  -0.000000  -0.000001   0.001677   0.578519  -0.021804
    24  H    0.000000  -0.000002   0.000001  -0.004189  -0.021804   0.593696
    25  H   -0.000000   0.000000  -0.000000  -0.000009   0.000062  -0.000929
    26  H   -0.000001  -0.000199   0.000001  -0.001304  -0.000006  -0.000006
              25         26
     1  O   -0.000070   0.000000
     2  C   -0.024463   0.000002
     3  C    0.001243   0.001249
     4  C   -0.000010  -0.026042
     5  C    0.000001  -0.002950
     6  C   -0.000000   0.000089
     7  C    0.000000  -0.000112
     8  C   -0.000002   0.000029
     9  O   -0.000000  -0.000000
    10  C    0.000076  -0.003851
    11  C   -0.003708   0.000059
    12  C    0.385213   0.002871
    13  O   -0.021119  -0.022625
    14  C    0.002796   0.389976
    15  H   -0.000032  -0.000033
    16  H   -0.000000   0.000017
    17  H    0.000000   0.000306
    18  H    0.000000  -0.000006
    19  H   -0.000000  -0.000001
    20  H    0.000000  -0.000199
    21  H   -0.000000   0.000001
    22  H   -0.000009  -0.001304
    23  H    0.000062  -0.000006
    24  H   -0.000929  -0.000006
    25  H    0.571287  -0.000061
    26  H   -0.000061   0.580685
 Mulliken charges:
               1
     1  O   -0.275941
     2  C    0.168413
     3  C   -0.093932
     4  C    0.004401
     5  C   -0.107030
     6  C   -0.092948
     7  C   -0.130366
     8  C    0.196265
     9  O   -0.239772
    10  C   -0.101581
    11  C   -0.132576
    12  C    0.061111
    13  O   -0.191897
    14  C    0.075863
    15  H    0.077161
    16  H    0.072347
    17  H    0.061087
    18  H    0.060777
    19  H    0.070400
    20  H    0.056540
    21  H    0.070248
    22  H    0.063998
    23  H    0.086000
    24  H    0.069793
    25  H    0.089726
    26  H    0.081913
 Sum of Mulliken charges =  -0.00000
 Mulliken charges with hydrogens summed into heavy atoms:
               1
     1  O   -0.275941
     2  C    0.168413
     3  C   -0.016771
     4  C    0.004401
     5  C    0.026404
     6  C    0.038228
     7  C   -0.003577
     8  C    0.196265
     9  O   -0.239772
    10  C   -0.037583
    11  C    0.023216
    12  C    0.150837
    13  O   -0.191897
    14  C    0.157776
 APT charges:
               1
     1  O    0.071186
     2  C   -0.133694
     3  C   -0.474579
     4  C   -0.166805
     5  C   -0.877594
     6  C   -0.896986
     7  C   -0.912794
     8  C    0.079308
     9  O   -0.149380
    10  C   -0.607852
    11  C   -0.755358
    12  C   -0.481071
    13  O   -0.177716
    14  C   -0.317757
    15  H    0.489238
    16  H    0.501259
    17  H    0.437351
    18  H    0.696795
    19  H    0.258376
    20  H    0.307146
    21  H    0.624054
    22  H    0.452353
    23  H    0.285090
    24  H    0.585017
    25  H    0.673442
    26  H    0.490973
 Sum of APT charges =  -0.00000
 APT charges with hydrogens summed into heavy atoms:
               1
     1  O    0.071186
     2  C   -0.133694
     3  C    0.014659
     4  C   -0.166805
     5  C    0.061016
     6  C    0.058186
     7  C    0.018405
     8  C    0.079308
     9  O   -0.149380
    10  C   -0.155500
    11  C    0.114748
    12  C    0.192371
    13  O   -0.177716
    14  C    0.173217
 Electronic spatial extent (au):  <R**2>=           2160.0644
 Charge=             -0.0000 electrons
 Dipole moment (field-independent basis, Debye):
    X=             -2.4630    Y=             -0.9110    Z=              3.8066  Tot=              4.6245
 Quadrupole moment (field-independent basis, Debye-Ang):
   XX=            -78.1723   YY=            -74.7799   ZZ=            -81.8354
   XY=              2.8685   XZ=              3.6458   YZ=              1.4611
 Traceless Quadrupole moment (field-independent basis, Debye-Ang):
   XX=              0.0902   YY=              3.4827   ZZ=             -3.5729
   XY=              2.8685   XZ=              3.6458   YZ=              1.4611
 Octapole moment (field-independent basis, Debye-Ang**2):
  XXX=             -5.2514  YYY=              0.4155  ZZZ=              5.9684  XYY=              4.5332
  XXY=              6.8767  XXZ=             17.4893  XZZ=             -8.4777  YZZ=             -2.4592
  YYZ=             -0.3530  XYZ=             -4.7775
 Hexadecapole moment (field-independent basis, Debye-Ang**3):
 XXXX=          -1407.2441 YYYY=           -700.3280 ZZZZ=           -500.5253 XXXY=             -0.3475
 XXXZ=             60.3865 YYYX=            -12.7683 YYYZ=              1.4635 ZZZX=             -0.6778
 ZZZY=             -2.4903 XXYY=           -340.6951 XXZZ=           -351.6424 YYZZ=           -197.8519
 XXYZ=            -11.3042 YYXZ=              0.5684 ZZXY=              9.5761
 N-N= 9.438137441042D+02 E-N=-3.386864561179D+03  KE= 6.344161277389D+02
  Exact polarizability:   0.000   0.000   0.000   0.000   0.000   0.000
 Approx polarizability:  80.464   1.836  56.109 -19.505   1.940  81.673
 No NMR shielding tensors so no spin-rotation constants.
 Leave Link  601 at Sun Feb  1 14:24:34 2026, MaxMem=  8589934592 cpu:               1.0 elap:               0.1
 (Enter /root/g16/l701.exe)
 ... and contract with generalized density number  0.
 Compute integral second derivatives.
 Leave Link  701 at Sun Feb  1 14:24:34 2026, MaxMem=  8589934592 cpu:               0.7 elap:               0.1
 (Enter /root/g16/l702.exe)
 L702 exits ... SP integral derivatives will be done elsewhere.
 Leave Link  702 at Sun Feb  1 14:24:34 2026, MaxMem=  8589934592 cpu:               0.1 elap:               0.0
 (Enter /root/g16/l703.exe)
 Integral derivatives from FoFJK, PRISM(SPDF).
 Compute integral second derivatives, UseDBF=F ICtDFT=           0.
 Calling FoFJK, ICntrl=    100147 FMM=F ISym2X=0 I1Cent= 0 IOpClX= 0 NMat=1 NMatS=1 NMatT=0.
 FoFJK:  IHMeth= 1 ICntrl=  100147 DoSepK=F KAlg= 0 I1Cent=           0 FoldK=F
 IRaf=         0 NMat=       1 IRICut=       1 DoRegI=T DoRafI=F ISym2E= 0 IDoP0=0 IntGTp=1.
 FoFCou: FMM=F IPFlag=           0 FMFlag=      100000 FMFlg1=         800
         NFxFlg=           0 DoJE=F BraDBF=F KetDBF=F FulRan=T
         wScrn=  0.000000 ICntrl=    100147 IOpCl=  0 I1Cent=           0 NGrid=           0
         NMat0=    1 NMatS0=      1 NMatT0=    0 NMatD0=    1 NMtDS0=    0 NMtDT0=    0
 Symmetry not used in FoFCou.
 Leave Link  703 at Sun Feb  1 14:24:35 2026, MaxMem=  8589934592 cpu:               6.7 elap:               0.4
 (Enter /root/g16/l716.exe)
 Dipole        =-9.69033884D-01-3.58395805D-01 1.49762317D+00
 Polarizability= 0.00000000D+00 0.00000000D+00 0.00000000D+00
                 0.00000000D+00 0.00000000D+00 0.00000000D+00
 ***** Axes restored to original set *****
 -------------------------------------------------------------------
 Center     Atomic                   Forces (Hartrees/Bohr)
 Number     Number              X              Y              Z
 -------------------------------------------------------------------
      1        8           0.006795790    0.001692703   -0.009646725
      2        6           0.023841316   -0.010065056   -0.020091014
      3        6          -0.043680304   -0.014209857    0.022849316
      4        6           0.038668915   -0.021382645   -0.034906440
      5        6          -0.011632954   -0.017020425    0.003179147
      6        6          -0.012212835   -0.005370477   -0.004265639
      7        6          -0.022793891   -0.001556590    0.000770256
      8        6          -0.006819860    0.013643640   -0.002369874
      9        8           0.003407883   -0.000230252   -0.021633738
     10        6           0.021003618   -0.014385193    0.034092428
     11        6           0.029939855   -0.039967122    0.012918660
     12        6          -0.016092010    0.064579913   -0.008672724
     13        8           0.022122355   -0.009296592    0.029713132
     14        6          -0.030719521    0.040229634   -0.004219418
     15        1          -0.002720250   -0.001149437   -0.001956184
     16        1          -0.000591151    0.000978335    0.003338593
     17        1           0.000834004   -0.001804043   -0.003383294
     18        1           0.001824776   -0.000013390   -0.001910724
     19        1          -0.002117879   -0.001273555    0.003015905
     20        1          -0.000773923    0.001144575   -0.003536270
     21        1           0.000469131   -0.001237322    0.004984659
     22        1          -0.002199955    0.006709947   -0.002222431
     23        1          -0.000700801    0.006252300   -0.004193666
     24        1          -0.000268311    0.007666062   -0.000591485
     25        1           0.006652708   -0.000769670    0.003900437
     26        1          -0.002236707   -0.003165482    0.004837092
 -------------------------------------------------------------------
 Cartesian Forces:  Max     0.064579913 RMS     0.016900118
 FormGI is forming the generalized inverse of G from B-inverse, IUseBI=4.
 GSVD:  received Info=                   1 from GESDD.
 Leave Link  716 at Sun Feb  1 14:24:35 2026, MaxMem=  8589934592 cpu:               0.3 elap:               0.0
 (Enter /root/g16/l103.exe)

 GradGradGradGradGradGradGradGradGradGradGradGradGradGradGradGradGradGrad
 Berny optimization.
 Red2BG is reusing G-inverse.
 Internal  Forces:  Max     0.222980797 RMS     0.041229382
 Search for a saddle point.
 Step number   1 out of a maximum of  137
 All quantities printed in internal units (Hartrees-Bohrs-Radians)
 Swapping is turned off.
 Second derivative matrix not updated -- analytic derivatives used.
 ITU=  0
     Eigenvalues ---   -3.35473   0.00452   0.00665   0.00743   0.00983
     Eigenvalues ---    0.01128   0.01894   0.02192   0.02812   0.03379
     Eigenvalues ---    0.03631   0.03884   0.04145   0.04419   0.04739
     Eigenvalues ---    0.05252   0.05438   0.05784   0.06815   0.07399
     Eigenvalues ---    0.08936   0.11206   0.11643   0.12252   0.12554
     Eigenvalues ---    0.13227   0.13503   0.13991   0.14536   0.15136
     Eigenvalues ---    0.15963   0.17136   0.17352   0.18935   0.19814
     Eigenvalues ---    0.20877   0.21522   0.23289   0.26142   0.26660
     Eigenvalues ---    0.28400   0.29073   0.32852   0.36395   0.41045
     Eigenvalues ---    0.41825   0.43833   0.44098   0.45456   0.46137
     Eigenvalues ---    0.46222   0.46486   0.46695   0.47294   0.47382
     Eigenvalues ---    0.47620   0.48860   0.49233   0.49472   0.49507
     Eigenvalues ---    0.49615   0.50818   0.53394   0.54368   0.60529
     Eigenvalues ---    0.66122   0.73405   1.04068   1.14916   1.25773
     Eigenvalues ---    1.41119   4.10749
 Eigenvectors required to have negative eigenvalues:
                          A16       A10       R19       A22       A17
   1                   -0.44546  -0.41467   0.30755  -0.25687   0.18734
                          D32       A13       D42       A19       A40
   1                   -0.15158   0.14450   0.14222   0.13383  -0.13348
 RFO step:  Lambda0=5.262182215D-02 Lambda=-4.33326041D-02.
 Linear search not attempted -- option 19 set.
 Iteration  1 RMS(Cart)=  0.05539336 RMS(Int)=  0.00102212
 Iteration  2 RMS(Cart)=  0.00172163 RMS(Int)=  0.00047884
 Iteration  3 RMS(Cart)=  0.00000184 RMS(Int)=  0.00047883
 Iteration  4 RMS(Cart)=  0.00000000 RMS(Int)=  0.00047883
 ITry= 1 IFail=0 DXMaxC= 2.21D-01 DCOld= 1.00D+10 DXMaxT= 3.00D-01 DXLimC= 3.00D+00 Rises=F
 Variable       Old X    -DE/DX   Delta X   Delta X   Delta X     New X
                                 (Linear)    (Quad)   (Total)
    R1        2.32286   0.01181   0.00000   0.00814   0.00814   2.33100
    R2        2.74112   0.03823   0.00000   0.05523   0.05552   2.79664
    R3        2.76710   0.03933   0.00000   0.04787   0.04799   2.81509
    R4        2.56939  -0.02598   0.00000  -0.01682  -0.01669   2.55271
    R5        2.03858   0.00262   0.00000   0.00571   0.00571   2.04428
    R6        2.83491   0.02397   0.00000   0.04698   0.04698   2.88189
    R7        2.70024   0.03021   0.00000  -0.00139  -0.00154   2.69870
    R8        2.90374  -0.02850   0.00000   0.03008   0.03008   2.93382
    R9        2.06071  -0.00232   0.00000  -0.00425  -0.00425   2.05646
   R10        2.06211  -0.00326   0.00000  -0.00591  -0.00591   2.05620
   R11        2.89780  -0.01643   0.00000   0.02731   0.02731   2.92511
   R12        2.06046  -0.00194   0.00000  -0.00316  -0.00316   2.05730
   R13        2.06233  -0.00331   0.00000  -0.00540  -0.00540   2.05693
   R14        2.86700   0.02209   0.00000   0.05583   0.05583   2.92283
   R15        2.05735  -0.00336   0.00000  -0.00453  -0.00453   2.05282
   R16        2.06305  -0.00303   0.00000  -0.00553  -0.00553   2.05752
   R17        2.29583   0.02187   0.00000   0.01603   0.01603   2.31187
   R18        2.79170   0.04621   0.00000   0.05444   0.05444   2.84614
   R19        2.62081   0.01521   0.00000  -0.08994  -0.08994   2.53087
   R20        2.04081   0.00100   0.00000   0.00105   0.00105   2.04186
   R21        2.03651   0.00375   0.00000   0.00727   0.00727   2.04378
   R22        2.03460   0.00435   0.00000   0.00806   0.00806   2.04266
   R23        2.51662   0.02495   0.00000  -0.00505  -0.00524   2.51138
   R24        2.04510   0.00650   0.00000   0.01154   0.01154   2.05664
   R25        2.50662   0.02186   0.00000   0.00857   0.00833   2.51495
   R26        2.04473   0.00537   0.00000   0.00593   0.00593   2.05066
    A1        2.17511  -0.00074   0.00000   0.01769   0.01776   2.19287
    A2        2.12890  -0.00077   0.00000   0.01288   0.01296   2.14185
    A3        1.97918   0.00151   0.00000  -0.03057  -0.03087   1.94831
    A4        2.10503  -0.00146   0.00000   0.02099   0.02059   2.12563
    A5        2.05157   0.00227   0.00000  -0.00313  -0.00294   2.04863
    A6        2.12639  -0.00107   0.00000  -0.01781  -0.01761   2.10878
    A7        2.15977   0.01078   0.00000  -0.00959  -0.00925   2.15052
    A8        2.05807   0.00520   0.00000   0.02139   0.02062   2.07869
    A9        2.06496  -0.01678   0.00000  -0.01212  -0.01174   2.05322
   A10        1.94557  -0.22298   0.00000   0.01296   0.01292   1.95849
   A11        1.91070   0.07015   0.00000   0.00159   0.00157   1.91227
   A12        1.90934   0.06314   0.00000  -0.00408  -0.00415   1.90519
   A13        1.89735   0.07539   0.00000  -0.00291  -0.00294   1.89442
   A14        1.90473   0.04842   0.00000   0.00517   0.00515   1.90988
   A15        1.89545  -0.03036   0.00000  -0.01340  -0.01341   1.88204
   A16        1.94880  -0.22271   0.00000   0.03169   0.03159   1.98040
   A17        1.90033   0.09192   0.00000  -0.01381  -0.01387   1.88645
   A18        1.91386   0.03749   0.00000   0.00068   0.00050   1.91436
   A19        1.92089   0.06988   0.00000  -0.00217  -0.00210   1.91879
   A20        1.88668   0.06225   0.00000  -0.00318  -0.00337   1.88332
   A21        1.89248  -0.03515   0.00000  -0.01434  -0.01442   1.87806
   A22        1.88795  -0.12809   0.00000   0.02408   0.02399   1.91194
   A23        1.93724   0.01670   0.00000  -0.00121  -0.00117   1.93606
   A24        1.89675   0.05470   0.00000  -0.00024  -0.00040   1.89635
   A25        1.95001   0.01476   0.00000  -0.01081  -0.01085   1.93916
   A26        1.88443   0.06417   0.00000   0.00441   0.00427   1.88870
   A27        1.90601  -0.01962   0.00000  -0.01558  -0.01561   1.89040
   A28        2.10926   0.01875   0.00000  -0.00569  -0.00570   2.10356
   A29        2.04351  -0.04079   0.00000   0.01239   0.01238   2.05589
   A30        2.12981   0.02069   0.00000  -0.00688  -0.00688   2.12293
   A31        2.06922   0.01839   0.00000   0.02040   0.01894   2.08817
   A32        2.05036  -0.01052   0.00000   0.00403   0.00253   2.05289
   A33        2.10339  -0.00224   0.00000   0.00762   0.00615   2.10954
   A34        2.06918   0.00013   0.00000   0.02821   0.02668   2.09586
   A35        2.10506  -0.00166   0.00000   0.01998   0.01845   2.12351
   A36        2.04360  -0.00205   0.00000  -0.01493  -0.01652   2.02708
   A37        2.12512  -0.00673   0.00000  -0.00172  -0.00265   2.12247
   A38        2.06301   0.00112   0.00000   0.02910   0.02950   2.09250
   A39        1.98193  -0.00140   0.00000  -0.01468  -0.01467   1.96726
   A40        2.01320  -0.01562   0.00000   0.05885   0.05807   2.07127
   A41        2.10039   0.01095   0.00000  -0.01130  -0.01370   2.08668
   A42        2.09908  -0.00812   0.00000   0.03976   0.03946   2.13853
   A43        1.96211   0.00218   0.00000   0.01229   0.01139   1.97350
    D1       -3.01085   0.00778   0.00000  -0.01339  -0.01296  -3.02381
    D2        0.11025  -0.00588   0.00000  -0.01084  -0.01083   0.09942
    D3        0.13083  -0.00361   0.00000  -0.03122  -0.03119   0.09964
    D4       -3.03126  -0.01727   0.00000  -0.02867  -0.02906  -3.06032
    D5       -2.92175   0.00706   0.00000  -0.02463  -0.02436  -2.94612
    D6       -0.30520  -0.00832   0.00000  -0.00124  -0.00105  -0.30625
    D7        0.21976   0.01811   0.00000  -0.00733  -0.00675   0.21300
    D8        2.83631   0.00272   0.00000   0.01606   0.01656   2.85287
    D9        3.02574  -0.04017   0.00000  -0.01578  -0.01650   3.00924
   D10       -0.08555  -0.00790   0.00000  -0.00336  -0.00392  -0.08948
   D11       -0.09447  -0.02596   0.00000  -0.01864  -0.01890  -0.11337
   D12        3.07743   0.00631   0.00000  -0.00623  -0.00633   3.07110
   D13       -1.46987  -0.00961   0.00000   0.02787   0.02783  -1.44204
   D14        0.63000  -0.01148   0.00000   0.03358   0.03356   0.66356
   D15        2.70511   0.03123   0.00000   0.01577   0.01576   2.72087
   D16        1.64131  -0.04164   0.00000   0.01596   0.01596   1.65726
   D17       -2.54201  -0.04351   0.00000   0.02166   0.02169  -2.52032
   D18       -0.46689  -0.00080   0.00000   0.00385   0.00389  -0.46301
   D19       -0.32046   0.00388   0.00000   0.08544   0.08489  -0.23556
   D20       -2.91358  -0.00718   0.00000  -0.00292  -0.00362  -2.91720
   D21        2.84976   0.03389   0.00000   0.09716   0.09676   2.94652
   D22        0.25663   0.02283   0.00000   0.00880   0.00825   0.26488
   D23       -0.85737   0.02815   0.00000   0.00671   0.00662  -0.85076
   D24       -2.98187   0.02227   0.00000  -0.00171  -0.00168  -2.98355
   D25        1.23331  -0.01142   0.00000   0.02344   0.02344   1.25675
   D26       -2.96507   0.03122   0.00000  -0.00150  -0.00157  -2.96664
   D27        1.19362   0.02533   0.00000  -0.00992  -0.00987   1.18375
   D28       -0.87439  -0.00836   0.00000   0.01523   0.01525  -0.85914
   D29        1.25353  -0.00338   0.00000   0.01335   0.01330   1.26683
   D30       -0.87097  -0.00926   0.00000   0.00493   0.00500  -0.86596
   D31       -2.93898  -0.04295   0.00000   0.03008   0.03012  -2.90886
   D32        1.25133  -0.07294   0.00000   0.01478   0.01477   1.26609
   D33       -0.89382  -0.01627   0.00000   0.01291   0.01288  -0.88094
   D34       -2.99014  -0.03728   0.00000   0.03304   0.03305  -2.95710
   D35       -2.91928  -0.05706   0.00000   0.01690   0.01692  -2.90236
   D36        1.21875  -0.00039   0.00000   0.01503   0.01504   1.23380
   D37       -0.87757  -0.02139   0.00000   0.03516   0.03520  -0.84236
   D38       -0.85529  -0.02308   0.00000  -0.00351  -0.00353  -0.85882
   D39       -3.00044   0.03359   0.00000  -0.00538  -0.00541  -3.00585
   D40        1.18642   0.01259   0.00000   0.01475   0.01475   1.20118
   D41        1.08144   0.02795   0.00000  -0.00036  -0.00028   1.08116
   D42       -2.02356   0.06851   0.00000   0.00540   0.00548  -2.01808
   D43       -3.06438  -0.02887   0.00000   0.00759   0.00755  -3.05683
[...]
 -0.09340073,0.00228409,0.07059907,0.00043006,-0.00115494,-0.00102960,0
 .00002481,-0.00072488,-0.00109643,0.00000086,0.00049570,-0.00020940,0.
 00019926,-0.00005381,-0.00008425,-0.00003774,0.00001287,0.00006546,-0.
 00004425,-0.00005608,0.00000449,0.00011964,0.00001933,0.00003387,-0.00
 023869,-0.00023340,-0.00012200,-0.00017665,0.00009294,-0.00004274,0.00
 141683,-0.00139662,0.00102155,-0.00455989,0.00344440,-0.00242422,-0.00
 180615,0.00624524,0.04110417,0.08759469,0.00005716,0.00003714,-0.00001
 463,-0.00006434,-0.00013181,-0.00007042,0.00014025,0.00014543,0.000121
 95,-0.00078885,-0.00025551,-0.00063083,-0.00485618,0.00009069,0.024876
 11,0.00245175,-0.07517346,-0.02728775,0.00728620,-0.00296276,-0.045945
 59,0.00072748,0.00228907,-0.00186377,0.00042255,0.00097581,0.00068343,
 0.00018638,-0.00038732,0.00016690,0.00000576,-0.00003544,0.00006830,-0
 .00000270,0.00005290,-0.00001877,-0.00003355,0.00004699,0.00003665,0.0
 0015170,0.00016023,-0.00008299,0.00007816,0.00002880,0.00001794,-0.000
 98282,0.00149841,0.00002385,0.00443361,-0.00178530,0.00205493,-0.00176
 853,0.00253799,0.01948415,-0.00721872,0.07981127,0.00004336,0.00000066
 ,-0.00001468,-0.00012808,0.00002967,0.00000812,0.00009620,-0.00007794,
 0.00001149,0.00074244,-0.00043034,0.00085915,0.00584265,-0.00135991,-0
 .01506269,0.07136793,-0.02617023,-0.44321856,0.00105413,0.00104843,-0.
 00467216,0.00009009,0.00117004,0.00008279,-0.00002237,0.00019557,0.000
 50563,0.00018650,0.00008902,-0.00006324,-0.00003158,0.00003348,0.00006
 776,-0.00002490,-0.00003783,0.00002403,0.00006437,0.00005786,0.0000435
 2,0.00000940,-0.00004241,-0.00008554,-0.00001539,-0.00001294,0.0000712
 0,0.00067773,-0.00084281,0.00162493,-0.00235836,0.00133882,-0.00002859
 ,-0.00496081,-0.00259268,-0.00058932,-0.07318878,0.02788387,0.45896796
 ,0.00003498,-0.00000959,-0.00013303,0.00005726,0.00009950,0.00032290,-
 0.00000524,0.00005041,0.00001388,-0.00008274,-0.00002398,-0.00016345,0
 .00012675,-0.00040868,0.00062576,0.00028878,0.00074686,0.00136933,-0.0
 7889773,0.00411745,0.01299711,0.00361782,0.00665544,0.03526537,-0.0065
 3207,-0.00473029,0.00278457,0.00101626,0.00065665,0.00006916,0.0004167
 1,0.00005148,-0.00009759,0.00024250,0.00011544,-0.00052173,-0.00062215
 ,-0.00019080,0.00019100,0.00032816,0.00009149,0.00013853,-0.00000372,-
 0.00002052,0.00001131,0.00003309,-0.00006112,0.00000838,0.00011922,-0.
 00002537,0.00003314,0.00010641,0.00038669,-0.00014800,0.00087473,0.000
 18996,0.00040261,0.07314044,-0.00000919,0.00002978,0.00004765,-0.00002
 266,-0.00004744,-0.00009948,0.00000139,0.00001819,0.00002600,-0.000006
 13,-0.00029274,0.00010774,-0.00056194,0.00297248,-0.00001051,0.0025533
 4,-0.00191763,-0.04665860,0.00361725,-0.07753431,-0.04106163,0.0029826
 6,0.00348187,0.02119679,-0.00521398,-0.00221515,0.00205253,0.00024879,
 0.00012655,0.00040147,0.00020315,0.00002923,-0.00016523,-0.00001662,0.
 00008879,0.00001606,-0.00009900,0.00005947,0.00003914,0.00030528,0.000
 04409,-0.00002171,-0.00001344,-0.00001486,0.00001958,-0.00032007,0.000
 28642,-0.00001709,0.00017414,-0.00010935,0.00032802,0.00025300,0.00159
 893,0.00088683,-0.00031717,-0.00862444,-0.00039212,-0.00056703,0.07922
 959,-0.00003550,0.00000583,0.00006775,0.00004132,-0.00000453,-0.000107
 81,-0.00010424,-0.00003431,0.00004039,0.00008327,-0.00005561,-0.000022
 65,-0.00025302,0.00112335,0.00105499,0.00021197,0.00201967,-0.00326032
 ,0.01355312,-0.03863175,-0.45527654,-0.00462398,-0.00330447,-0.0100271
 5,0.00190531,0.00092439,0.00136711,-0.00208913,-0.00108857,0.00114825,
 -0.00023369,-0.00014249,0.00005076,-0.00002650,0.00001848,0.00011526,0
 .00002367,0.00004333,-0.00005384,-0.00024135,0.00008671,-0.00008384,-0
 .00000513,-0.00000315,-0.00001034,-0.00020672,0.00015524,-0.00001089,0
 .00023192,-0.00018885,0.00016346,-0.00022976,0.00017168,0.00042926,-0.
 00029600,-0.00030786,0.00084870,-0.01427873,0.04356688,0.47226167,-0.0
 0004783,0.00002382,0.00006048,0.00007448,-0.00002859,-0.00010260,-0.00
 001069,0.00006063,0.00005557,0.00009115,-0.00031307,0.00002299,0.00077
 414,-0.00140363,-0.00035987,0.00317682,-0.00354548,0.00052887,-0.33421
 038,0.13191939,-0.12677430,-0.02551395,0.01183645,-0.01107023,0.004169
 86,-0.00055950,-0.00306900,-0.00138626,-0.00207085,0.00183497,-0.00014
 214,-0.00056297,-0.00062723,0.00006353,0.00006090,0.00003863,-0.000089
 02,0.00002753,-0.00005677,0.00017236,-0.00005433,0.00013598,-0.0000031
 5,-0.00002128,-0.00000083,0.00028348,-0.00008798,0.00017323,0.00001111
 ,0.00003553,-0.00003681,0.00126693,-0.00054084,0.00033016,0.00005384,-
 0.00042675,0.00010066,0.00657788,-0.00284828,0.00708315,0.34500991,0.0
 0005616,0.00007874,-0.00003878,-0.00005583,-0.00013661,0.00002909,0.00
 024009,0.00025095,0.00010913,-0.00112696,-0.00037974,-0.00044157,-0.00
 119225,-0.00685290,-0.00398848,0.03571420,-0.01730727,0.01907249,0.125
 11926,-0.12714438,0.06076885,-0.02076469,0.01067354,-0.00877871,0.0012
 3640,-0.00076943,-0.00091842,-0.00196955,-0.00301317,0.00165958,-0.000
 03159,-0.00057563,-0.00074457,0.00018853,0.00018454,-0.00030089,-0.000
 48483,0.00002442,0.00015817,0.00046604,0.00004304,0.00007783,0.0000007
 6,-0.00001787,0.00005140,0.00143036,-0.00083292,0.00124375,-0.00000863
 ,0.00019306,-0.00018557,0.00025412,0.00290091,0.00091475,-0.00035344,0
 .00168880,0.00010218,-0.00670106,0.00310939,-0.00436683,-0.13161295,0.
 13785260,0.00001909,0.00001278,0.00005908,-0.00011783,-0.00010419,-0.0
 0020359,0.00004512,0.00001654,0.00001898,-0.00010572,-0.00008490,-0.00
 000298,-0.00050853,-0.00230544,-0.00033585,0.01170986,-0.00704116,0.00
 631544,-0.12062638,0.05852426,-0.14001092,0.01652444,-0.00810604,0.007
 96777,-0.00136758,0.00111669,0.00029802,0.00075995,0.00120727,-0.00084
 188,0.00003697,0.00027369,0.00059291,-0.00021796,-0.00001468,0.0003195
 1,0.00040154,0.00013576,-0.00005757,-0.00038235,0.00004658,-0.00022705
 ,-0.00000212,0.00002767,0.00001277,0.00031074,-0.00017090,0.00046787,0
 .00011152,-0.00014832,0.00007364,-0.00011478,0.00045469,0.00037408,0.0
 0011854,0.00077562,0.00055826,-0.03875506,0.01967620,-0.00915097,0.131
 74937,-0.06437355,0.13363054,-0.00011453,0.00017960,0.00009664,-0.0000
 9764,-0.00045401,-0.00023654,-0.00035564,-0.00008041,0.00021346,0.0001
 5852,-0.00052548,-0.00080339,-0.00001967,-0.00004137,-0.00006681,0.000
 08527,0.00027193,0.00007305,0.00036149,0.00142469,-0.00035670,0.012468
 54,-0.00669462,-0.02428620,-0.00473611,-0.00172308,-0.00451461,-0.1189
 1469,0.01865648,0.12491255,-0.00262669,0.00845263,0.03654926,-0.001409
 56,0.00107647,0.00089475,0.00228801,-0.00054477,0.00030663,-0.00223261
 ,0.00504973,-0.00037734,-0.00001034,0.00007567,-0.00002698,0.00001318,
 -0.00000801,0.00001205,0.00002378,-0.00000810,0.00001275,0.00000155,-0
 .00005501,0.00001422,-0.00000047,0.00000763,0.00000538,-0.00058637,-0.
 00058766,-0.00021726,-0.00014449,-0.00019088,0.00018246,0.11829801,0.0
 0058904,-0.00001485,-0.00023796,-0.00105459,0.00007461,-0.00004232,0.0
 0199118,0.00016355,-0.00105694,-0.00060629,0.00228205,0.00295117,-0.00
 012401,0.00007314,-0.00000693,-0.00005499,0.00004564,0.00002932,0.0006
 6306,0.00042720,0.00034564,0.00940254,-0.00025728,-0.00664220,-0.00225
 820,0.00056649,-0.00240336,0.02611513,-0.06757430,-0.10666268,-0.01450
 244,0.00965223,0.01623222,0.00271899,-0.00470581,0.00109589,-0.0023655
 9,0.00225329,-0.00224983,0.00443497,-0.01333054,0.00045426,0.00009360,
 -0.00008476,0.00011833,0.00005334,0.00002027,0.00003136,-0.00000891,-0
 .00003987,0.00001362,0.00001082,-0.00002410,-0.00000098,0.00001080,0.0
 0005853,0.00000847,-0.00060484,-0.00030355,-0.00007797,0.00006680,-0.0
 0000669,0.00015248,-0.02231578,0.06741420,-0.00065125,-0.00002361,0.00
 039713,0.00129252,0.00040225,-0.00003844,-0.00157298,-0.00014135,0.000
 99630,-0.00008396,-0.00143348,-0.00247952,-0.00005152,-0.00010828,-0.0
 0002736,0.00007696,0.00028817,0.00012045,0.00059718,0.00148764,0.00075
 900,0.01379953,0.00091326,-0.01336006,-0.00357800,-0.00224564,-0.00087
 269,0.12516101,-0.09920422,-0.40063934,-0.00143434,-0.00550252,-0.0003
 6927,-0.00076817,0.00321214,-0.00171232,-0.00210186,-0.00107722,0.0011
 5907,0.00060382,0.00639140,0.00109634,-0.00005650,-0.00014790,-0.00012
 257,0.00003426,-0.00001741,0.00001620,0.00003682,-0.00000149,0.0000204
 7,0.00002415,-0.00007006,0.00004020,0.00002392,0.00002167,0.00001637,-
 0.00006186,-0.00003863,0.00040053,-0.00006584,-0.00015239,0.00011843,-
 0.13143165,0.09763209,0.41300935,-0.00024205,-0.00054286,0.00048768,0.
 00052065,0.00048808,-0.00173598,-0.00059887,-0.00029740,0.00010036,0.0
 0037297,-0.00047264,-0.00068411,0.00005882,0.00000920,0.00003794,0.000
 10408,-0.00010432,-0.00008136,0.00051689,0.00000156,0.00021847,-0.0004
 1439,0.00424077,-0.00062918,0.00177017,0.00003623,-0.00015088,-0.00517
 272,0.00298915,0.04088811,-0.09124010,-0.01034731,0.09388705,-0.002109
 09,0.00437345,-0.00305143,0.00194160,0.00053635,0.00049497,-0.00234493
 ,0.00264175,-0.00133042,0.00000135,0.00008875,0.00002428,-0.00003122,0
 .00001392,-0.00001970,-0.00001632,0.00000717,-0.00000888,-0.00001018,0
 .00008871,0.00000593,-0.00001913,-0.00000476,-0.00001409,0.00007546,0.
 00005853,-0.00002287,0.00010085,0.00013391,-0.00011262,-0.00338881,-0.
 00750813,0.00226366,0.09091494,0.00052156,0.00054727,-0.00079040,-0.00
 111071,-0.00135231,0.00242349,0.00158073,0.00025099,-0.00067018,-0.000
 20330,0.00167270,0.00226631,-0.00000077,-0.00000991,0.00001910,0.00017
 750,-0.00000093,-0.00007515,-0.00052145,0.00071631,-0.00019567,0.00244
 510,-0.00784629,0.00231962,0.00058632,0.00085220,0.00075016,0.00489998
 ,0.01194320,0.00617718,-0.02003132,-0.05539085,-0.03246798,0.00409093,
 -0.00949658,0.00808398,-0.00075800,0.00026001,-0.00260471,0.00078548,-
 0.00590314,0.00263383,0.00010484,-0.00001308,0.00010148,0.00000501,-0.
 00000550,-0.00000341,0.00000720,0.00001763,-0.00001075,-0.00001078,0.0
 0003817,0.00000168,-0.00001641,-0.00003633,-0.00000552,0.00004164,0.00
 001199,-0.00002109,-0.00010104,-0.00009637,0.00006860,-0.00465792,0.00
 907502,-0.00357111,0.00352160,0.05146660,-0.00015296,0.00009072,-0.000
 48238,0.00072759,-0.00070030,0.00132549,-0.00005199,-0.00011131,0.0000
 8807,-0.00012536,-0.00029984,-0.00013955,0.00002961,-0.00002722,-0.000
 02678,-0.00004145,0.00006445,0.00002709,-0.00006550,-0.00009530,-0.000
 07488,0.00021094,0.00252911,0.00032746,-0.00045211,-0.00076152,-0.0000
 3762,-0.00533322,-0.00274754,0.00093827,0.10273547,-0.03725665,-0.4519
 2127,-0.00074320,0.00239476,-0.00386046,-0.00156603,-0.00077289,0.0022
 0421,0.00115372,0.00013070,-0.00018832,-0.00007682,-0.00002325,-0.0000
 1517,-0.00001245,-0.00001697,0.00001030,-0.00000873,-0.00000304,-0.000
 00126,-0.00000309,-0.00004095,-0.00000444,0.00000881,-0.00000390,0.000
 00803,0.00003420,-0.00000168,-0.00000956,-0.00002731,-0.00002349,-0.00
 000281,0.00079545,-0.00230449,0.00054848,-0.10678475,0.03529753,0.4582
 1953,-0.00040669,0.00012977,0.00057987,-0.00023638,-0.00098928,-0.0013
 8326,-0.00024096,-0.00051864,0.00003550,0.00041899,-0.00051892,-0.0009
 0267,-0.00009656,-0.00001204,-0.00006507,-0.00019748,0.00013223,0.0000
 8108,-0.00106336,0.00025699,-0.00147774,-0.00223613,-0.00703442,0.0062
 2815,0.00110690,0.00114900,0.00014959,-0.01549881,-0.02336781,-0.02365
 944,-0.20429538,-0.14535235,-0.12981237,-0.00202881,0.00850118,0.00146
 230,0.00212506,-0.00040546,0.00049251,-0.00220135,0.00325023,-0.001096
 30,-0.00003305,0.00015684,-0.00001418,0.00004384,-0.00000260,0.0000089
 2,0.00002993,0.00000743,0.00000426,0.00003914,-0.00012369,-0.00000776,
 0.00000341,-0.00002834,0.00001410,0.00006054,0.00000672,-0.00005627,-0
 .00028082,-0.00032095,0.00020244,0.00062177,0.00525943,-0.00168162,0.0
 0887247,0.00872946,0.00997796,0.21501849,0.00060519,-0.00001086,-0.000
 46766,-0.00048068,0.00072288,0.00082738,0.00096280,0.00061398,-0.00023
 670,-0.00032273,0.00123437,0.00199917,0.00004083,0.00002793,0.00006551
 ,-0.00013522,-0.00003750,0.00006036,0.00096130,-0.00089454,0.00030000,
 -0.00417473,0.00926373,-0.00370330,0.00015056,-0.00108413,0.00021019,0
 .00539658,0.00982741,-0.00933359,-0.16003878,-0.17832262,-0.13701579,0
 .00327658,-0.01585753,0.00133188,0.00067248,0.00324849,-0.00414195,-0.
 00048415,-0.00486248,0.00078695,0.00007876,-0.00006353,0.00002613,-0.0
 0000656,0.00000913,0.00000132,-0.00001957,-0.00001008,-0.00000443,0.00
 001198,0.00000408,-0.00000517,0.00000128,0.00005329,-0.00000580,-0.000
 03985,-0.00000654,0.00003513,0.00016430,0.00018295,-0.00008689,0.00302
 706,-0.00629033,0.00326647,0.00022405,0.00304758,0.00494221,0.15056925
 ,0.17834170,-0.00042159,-0.00019173,0.00073261,0.00059007,-0.00003939,
 -0.00140112,-0.00087480,-0.00046121,0.00044380,0.00039104,-0.00076081,
 -0.00153848,-0.00001276,0.00002298,0.00000875,0.00019772,-0.00009676,-
 0.00009171,0.00016044,0.00056556,0.00045662,0.00246323,-0.00323470,-0.
 00164236,-0.00051983,0.00038203,0.00093257,0.01384205,0.00747072,0.016
 01355,-0.12987623,-0.13742248,-0.21606990,-0.00145523,0.00598683,0.000
 84387,0.00035228,-0.00037738,0.00062885,-0.00023513,0.00301799,-0.0003
 7332,-0.00003590,0.00004421,-0.00006312,-0.00000899,0.00001411,-0.0000
 1357,0.00000176,-0.00000153,0.00000517,-0.00002443,0.00008831,0.000014
 46,-0.00000444,-0.00000834,-0.00000195,-0.00002080,0.00000643,0.000037
 33,0.00004838,0.00004658,-0.00002004,-0.00181142,0.00283882,0.00050976
 ,-0.02379519,-0.01939153,-0.00701803,0.14082059,0.14145337,0.20731281,
 -0.00106624,-0.00094603,-0.00140260,0.00957211,0.00968957,0.00841888,-
 0.00097822,-0.00167047,0.00419084,-0.00131751,-0.00217207,-0.00417261,
 -0.00024162,0.00020014,-0.00034922,-0.00014427,-0.00002028,0.00001324,
 -0.00001659,-0.00000845,-0.00002868,0.00027057,0.00008053,-0.00006643,
 -0.00009623,-0.00003435,0.00002745,0.00084496,0.00135807,-0.00072386,-
 0.00415973,0.00102769,-0.00040945,-0.37094002,-0.16309220,-0.07794089,
 -0.03132320,-0.00403169,-0.00168972,0.01172069,0.00018221,0.00517351,-
 0.00071943,0.00061375,-0.00086994,-0.00000070,0.00000054,0.00002883,0.
 00006460,-0.00001888,0.00000669,0.00001118,-0.00000971,-0.00001344,-0.
 00000054,-0.00000404,0.00000224,-0.00004228,0.00001098,0.00001063,0.00
 000811,-0.00001833,0.00003010,0.00008144,-0.00012409,-0.00000762,0.000
 24150,-0.00022446,-0.00005284,0.00034179,-0.00057017,0.00019528,0.3884
 6677,-0.00192027,-0.00104677,0.00379816,-0.00987676,0.00084005,-0.0027
 2586,-0.00685190,0.00074674,-0.00282492,-0.00003210,-0.00198142,-0.008
 74405,0.00034514,-0.00071851,0.00058671,0.00005476,0.00025988,0.000016
 50,-0.00007259,0.00004350,-0.00004399,0.00086768,0.00086659,0.00033461
 ,-0.00016646,-0.00024690,-0.00019041,-0.00264977,-0.00274794,0.0016888
 2,0.00623174,-0.00042225,0.00085401,-0.14296915,-0.10049006,-0.0517931
 9,-0.01711184,-0.01698899,0.01273916,0.01314737,0.01544332,0.00107099,
 0.00035921,-0.00300150,0.00134093,0.00001179,-0.00001699,0.00001269,-0
 .00008041,-0.00005590,0.00005325,0.00005852,-0.00007994,0.00005690,0.0
 0002159,-0.00001765,0.00000460,-0.00006173,-0.00000453,-0.00000230,-0.
 00000740,-0.00004806,0.00002839,0.00007284,0.00023975,-0.00031119,0.00
 003371,0.00008392,-0.00034847,0.00076623,0.00071187,0.00015792,0.16120
 212,0.10677674,0.00192476,0.00190126,0.00281682,-0.02495219,-0.0039438
 1,0.00837804,0.00078065,-0.00526847,-0.00428727,0.00115332,-0.00114229
 ,-0.00116321,-0.00007606,0.00050586,0.00013665,-0.00006133,-0.00017239
 ,0.00005785,0.00003918,-0.00004210,-0.00000738,-0.00022944,-0.00024099
 ,-0.00018548,0.00004848,0.00009756,0.00011259,0.00039112,0.00023056,0.
 00018013,-0.00075861,-0.00053676,-0.00009046,-0.09269594,-0.05669949,-
 0.09539688,0.04703444,0.02274076,0.00402162,-0.00064848,-0.00179921,-0
 .00535815,-0.00233497,-0.00008177,-0.00021951,0.00001507,0.00004536,0.
 00002360,-0.00009908,-0.00005321,0.00001969,-0.00004619,0.00005434,-0.
 00003591,0.00000952,0.00000860,0.00001520,-0.00000214,0.00001802,0.000
 00971,0.00000805,0.00003206,0.00000907,-0.00004665,0.00008064,0.000051
 93,0.00000236,-0.00009483,0.00005111,0.00007886,-0.00019742,0.00020963
 ,0.06887668,0.04433457,0.08972362,0.00042160,0.00003342,-0.00166060,0.
 00142618,0.00077778,0.00449638,0.00107060,-0.00291628,-0.00218317,0.00
 760037,0.00221593,-0.00739409,0.00070800,0.00140424,-0.00153120,-0.000
 32203,-0.00038953,0.00005781,-0.00006552,-0.00008194,-0.00016283,0.000
 94415,0.00087555,0.00040989,-0.00020178,-0.00027810,-0.00012401,-0.000
 93554,-0.00117040,-0.00025727,0.00060566,-0.00051599,0.00010634,0.0043
 2476,-0.00115646,-0.01618587,-0.04276457,-0.00653360,0.04508584,-0.152
 24302,-0.01523994,0.16541929,0.00055473,-0.00052263,-0.00058441,-0.000
 08678,-0.00001209,0.00016083,-0.00013513,-0.00035015,-0.00032337,-0.00
 008876,0.00003392,-0.00010044,-0.00001554,0.00004097,0.00004459,-0.000
 34468,0.00016794,-0.00022423,-0.00000570,-0.00000788,0.00010878,0.0002
 3605,0.00011817,-0.00036664,0.00009607,0.00013883,-0.00017595,0.000133
 47,0.00012942,0.00003388,-0.00057713,-0.00137230,0.00158860,0.17966453
 ,-0.00035862,-0.00016666,0.00153230,-0.00048033,0.00047862,-0.00141959
 ,-0.00750262,-0.00078109,-0.00103829,0.01330291,-0.00236187,-0.0253307
 3,0.00269870,-0.00066660,0.00086399,0.00028227,0.00025953,0.00006359,0
 .00000453,0.00010184,0.00009383,-0.00058190,-0.00062079,-0.00035585,0.
 00006188,0.00019780,0.00011351,-0.00107725,-0.00173969,0.00317398,0.00
 239290,-0.00073201,-0.00030253,-0.00831386,0.00554743,0.00263764,0.001
 43941,-0.00919732,0.01564999,-0.02483573,-0.03380160,0.00131553,0.0009
 0801,0.00015645,-0.00062951,-0.00022310,-0.00003077,-0.00002346,-0.000
 30646,-0.00007950,-0.00001718,0.00000805,-0.00002297,0.00003952,0.0000
 1644,-0.00006534,0.00000785,0.00024184,-0.00001626,0.00007911,-0.00001
 040,-0.00000191,-0.00008113,-0.00040765,0.00028609,0.00043142,-0.00020
 946,0.00016771,0.00008933,-0.00024029,0.00015076,-0.00011000,-0.001420
 40,0.00185504,0.00022315,0.02461113,0.04108308,0.00019112,0.00063646,0
 .00121386,-0.00282591,-0.00240850,-0.00378746,-0.00129505,-0.00382717,
 -0.00217005,0.01432892,0.01028467,-0.00741985,0.00097274,0.00115224,0.
 00066839,0.00004842,-0.00019552,0.00004219,0.00010861,-0.00003395,-0.0
 0000417,-0.00051904,-0.00066986,-0.00039285,0.00013816,0.00020302,0.00
 024567,0.00156319,0.00146095,-0.00128103,-0.00143904,0.00071718,0.0002
 8969,-0.00381002,-0.00369271,0.00606966,-0.00463433,0.00560494,0.00895
 073,0.18142588,-0.01170331,-0.37707725,0.00139622,-0.00003509,-0.00011
 171,-0.00007678,0.00008552,0.00012071,-0.00013998,-0.00004239,0.000118
 30,-0.00004018,0.00007489,-0.00001748,0.00001877,0.00001085,0.00002357
 ,-0.00008487,0.00007735,0.00001873,0.00002030,0.00004738,0.00003729,0.
 00010689,-0.00029864,0.00036155,0.00001064,-0.00024063,0.00003449,0.00
 002054,-0.00010736,0.00008383,0.00075294,-0.00009386,0.00092697,-0.186
 23816,0.00299354,0.37305621\\-0.00000530,0.00001423,-0.00001081,-0.000
 01325,0.00001430,0.00000508,0.00000370,0.00000882,-0.00000432,-0.00000
 791,0.00003234,0.00006625,0.00004150,0.00001280,-0.00008515,-0.0000432
 7,-0.00000338,0.00002832,0.00004593,0.00000885,0.00005164,-0.00000027,
 -0.00003922,-0.00002583,-0.00000792,0.00001181,-0.00000052,0.00003815,
 0.00001389,-0.00000669,-0.00002849,0.00002884,-0.00003461,0.00002595,-
 0.00003621,0.00002715,-0.00003107,0.00001534,-0.00002757,0.00000983,-0
 .00005411,0.00002166,0.00000250,-0.00000935,0.00000614,-0.00000020,-0.
 00000316,0.00000778,0.00000084,-0.00000165,-0.00000090,0.00000586,-0.0
 0000874,0.00000793,-0.00001588,0.00000357,-0.00000389,-0.00003038,0.00
 000839,-0.00000201,0.00001196,-0.00000248,-0.00002948,-0.00000141,-0.0
 0001103,0.00000486,-0.00000213,0.00000470,-0.00000020,0.00001001,-0.00
 001669,0.00000533,-0.00000114,-0.00000174,0.00000325,-0.00000761,0.000
 00987,-0.00000340\\\@


 IF YOU GIVE A BOY AND A PIG EVERYTHING THEY WANT,
 YOU'LL GET A BAD BOY AND A GOOD PIG.
 Job cpu time:       0 days  0 hours  0 minutes 41.0 seconds.
 Elapsed time:       0 days  0 hours  0 minutes  2.9 seconds.
 File lengths (MBytes):  RWF=     33 Int=      0 D2E=      0 Chk=      2 Scr=      1
 Normal termination of Gaussian 16 at Sun Feb  1 14:24:56 2026.
