26
 energy: -41.810289805345 gnorm: 0.000419173939 xtb: 6.7.1 (edcfbbe)
O            2.80437392560394       -0.77182886193315       -1.56940248161308
C            2.01339665518473       -0.73940965508077       -0.61954932862254
C            0.71146876611608       -1.37194579565742       -0.60759716141609
C           -0.12688323486997       -1.29797186931148        0.47840397675592
C           -1.50140342108918       -1.90258854984444        0.46993572236627
C           -2.46787411633877       -1.09629947452251       -0.40915988829656
C           -2.50249403656033        0.38499429832330       -0.01639786936418
C           -1.32719494387955        1.13233277213352       -0.62009523507592
O           -1.06503641248501        1.05068902683429       -1.80285730195468
C           -0.53365025197214        1.96688878403138        0.30792556423239
C            0.64964262509110        2.45831904505661       -0.04633124130448
C            2.30548381659971       -0.05977002045708        0.61636247975069
O            1.50260704245973       -0.04235907347092        1.64349671142695
C            0.32277501996248       -0.60990844320244        1.60865321862438
H            0.41447833754810       -1.90341120496283       -1.49940119713776
H           -1.44759615995138       -2.92121228120742        0.08298238561162
H           -1.88662232318301       -1.94090796119648        1.48996883887008
H           -3.46445441474127       -1.52861128948442       -0.31412445709352
H           -2.16427722788868       -1.16364114444384       -1.45528231291744
H           -2.52960632175038        0.49798480051937        1.06669628337630
H           -3.40502432226700        0.83728692156722       -0.43548902204509
H           -0.95163099169549        2.14854707197343        1.28749872236934
H            1.04740115229554        2.25862551388290       -1.02896659468235
H            1.24851271264705        3.06032482802162        0.61563073574707
H            3.24488573759689        0.45168680635129        0.76940645813169
H           -0.23530061243289       -0.51828724392011        2.52687799426200
