26
 energy: -41.810350152066 gnorm: 0.000316286618 xtb: 6.7.1 (edcfbbe)
O            2.74130990954300       -0.45930841277616       -1.59513049285554
C            1.94722772341979       -0.50552134365688       -0.65798685927422
C            0.74249126744581       -1.31314145206016       -0.63758779823063
C           -0.15658103022993       -1.18985947469781        0.37491400130497
C           -1.48828456082842       -1.88025782991741        0.39555922555962
C           -2.54696509919673       -1.08369344920463       -0.38276908903101
C           -2.56165371640677        0.39280464943356        0.03099453184726
C           -1.30816345400473        1.04984670982777       -0.51563653436504
O           -1.10486932021821        1.10517491722976       -1.71213131248513
C           -0.33693782707552        1.56921535247517        0.46894789607715
C            0.90234783947056        1.99628958761372        0.01596095561383
C            2.14592916210236        0.27340573257535        0.56590984498544
O            1.43304687727800        0.04302633973081        1.66693243543962
C            0.17498765170388       -0.32427373840292        1.46238489414973
H            0.58348726283137       -1.99277867204662       -1.46011561674730
H           -1.39250968991957       -2.86846213000040       -0.05547051699725
H           -1.81860310023251       -1.99970833038247        1.42870415897185
H           -3.52546642273693       -1.53124637578313       -0.20642867235153
H           -2.33200401376117       -1.13416304581423       -1.45153891173932
H           -2.63079628818685        0.49409027932602        1.11276952357167
H           -3.42439824206336        0.87672838994764       -0.43089778310774
H           -0.72413238634616        1.91607218035272        1.41555325253232
H            1.10625159516876        1.95583741083344       -1.04147290295682
H            1.49773556116484        2.67324968099803        0.60455448565763
H            3.13281404477723        0.67050670000193        0.76484556604945
H           -0.40028674369872       -0.35430667560400        2.37832071838250
